 Gaussian 09, Revision D.01,
 Gaussian 09:  ES64L-G09RevD.01 24-Apr-2013

 ----------------------------------------------------------------------
 #P M062X/6-311++G(d,p) Opt(Tight,RCFC) Freq SCF(Conver=9) Int(Grid=Ult
 raFine) Geom(Check) Guess(Read)
 ----------------------------------------------------------------------

 -----------
 desh_sp own
 -----------
 Structure from the checkpoint file:  "desh_sp.chk"
 Charge =  0 Multiplicity = 1

 SCF Done:  E(RM062X) =  -769.132932395     A.U. after   15 cycles
 SCF Done:  E(RM062X) =  -769.134296615     A.U. after   13 cycles
 SCF Done:  E(RM062X) =  -769.134620298     A.U. after   14 cycles
 SCF Done:  E(RM062X) =  -769.134627697     A.U. after   14 cycles
 SCF Done:  E(RM062X) =  -769.134641713     A.U. after   13 cycles
 SCF Done:  E(RM062X) =  -769.134638772     A.U. after   12 cycles
 SCF Done:  E(RM062X) =  -769.134639363     A.U. after   11 cycles
 SCF Done:  E(RM062X) =  -769.134639040     A.U. after   11 cycles
 SCF Done:  E(RM062X) =  -769.134638962     A.U. after    9 cycles
 SCF Done:  E(RM062X) =  -769.134638937     A.U. after    8 cycles
 SCF Done:  E(RM062X) =  -769.134638931     A.U. after    7 cycles
 Optimization completed.
    -- Stationary point found.
 Normal termination of Gaussian 09 at Wed Nov 27 11:28:42 2019.

 ----------------------------------------------------------------------
 #P Geom=AllCheck Guess=TCheck SCRF=Check GenChk RM062X/6-311++G(d,p) F
 req
 ----------------------------------------------------------------------

 Structure from the checkpoint file:  "desh_sp.chk"
 -----------
 desh_sp own
 -----------
 Charge =  0 Multiplicity = 1

                         Standard orientation:
 ---------------------------------------------------------------------
 Center     Atomic      Atomic             Coordinates (Angstroms)
 Number     Number       Type             X           Y           Z
 ---------------------------------------------------------------------
      1         16           0       -2.629789    0.148436    0.440512
      2          6           0       -1.896026   -0.102799   -1.218372
      3          1           0       -3.902661   -0.020719    0.043838
      4          6           0       -0.466998    0.437835   -1.200524
      5          1           0       -2.476083    0.444924   -1.961131
      6          1           0       -1.927904   -1.161934   -1.473915
      7          1           0        0.024429    0.154692   -2.147859
      8          7           0        0.269431    0.020708   -0.023194
      9          1           0       -0.528363    1.528100   -1.186703
     10          6           0        0.562735   -1.413930    0.048061
     11          6           0        1.345238    0.932567    0.389978
     12          6           0        0.763540    2.075600    1.222321
     13          6           0        2.207968    1.479094   -0.757878
     14          1           0        2.002346    0.354173    1.044042
     15          6           0        1.784093   -1.861251   -0.766669
     16          1           0       -0.315303   -1.915951   -0.368486
     17          6           0        0.668782   -1.872465    1.502381
     18          1           0        1.555659   -1.464639    1.994169
     19          1           0        0.741958   -2.961632    1.550117
     20          1           0       -0.215554   -1.552475    2.055501
     21          1           0        1.710885   -1.540829   -1.809078
     22          1           0        1.868295   -2.950630   -0.755078
     23          1           0        2.706596   -1.452623   -0.344469
     24          1           0        1.639930    2.168154   -1.388415
     25          1           0        2.597547    0.680183   -1.390826
     26          1           0        3.056307    2.034754   -0.351162
     27          1           0        0.060283    2.670239    0.632500
     28          1           0        1.554290    2.743034    1.574837
     29          1           0        0.221962    1.675336    2.080499
 ---------------------------------------------------------------------

 SCF Done:  E(RM062X) =  -769.134638931     A.U. after    1 cycles

 The electronic state is 1-A.
 Alpha  occ. eigenvalues --  -89.88000 -14.72774 -10.56678 -10.56548 -10.56467
 Alpha  occ. eigenvalues --  -10.56420 -10.52360 -10.52221 -10.51666 -10.51488
 Alpha  occ. eigenvalues --   -8.24569  -6.16694  -6.16485  -6.16065  -1.03487
 Alpha  occ. eigenvalues --   -0.89509  -0.88446  -0.83532  -0.78390  -0.76904
 Alpha  occ. eigenvalues --   -0.76737  -0.69083  -0.68592  -0.60595  -0.56377
 Alpha  occ. eigenvalues --   -0.55744  -0.54173  -0.50470  -0.49897  -0.48909
 Alpha  occ. eigenvalues --   -0.48375  -0.46679  -0.44796  -0.44620  -0.44346
 Alpha  occ. eigenvalues --   -0.43593  -0.42143  -0.41258  -0.40668  -0.39371
 Alpha  occ. eigenvalues --   -0.38485  -0.37874  -0.37158  -0.28718  -0.26375
 Alpha virt. eigenvalues --   -0.00542   0.00393   0.00723   0.01134   0.02477
 Alpha virt. eigenvalues --    0.02728   0.02830   0.03169   0.03367   0.04947
 Alpha virt. eigenvalues --    0.05225   0.05538   0.06018   0.06260   0.06419

 Mulliken charges:
               1
     1  S   -0.118922
     2  C   -0.369660
     3  H    0.090470
     4  C   -0.290111
     5  H    0.232574
     6  H    0.176060
     7  H    0.163536
     8  N    0.177028
     9  H    0.122793
    10  C   -0.284472
    11  C   -0.095316
    12  C   -0.418376
    13  C   -0.541819
    14  H    0.157450
    15  C   -0.553568
    16  H    0.156031
    17  C   -0.482541
    18  H    0.138757
    19  H    0.167110
    20  H    0.153078
    21  H    0.167990
    22  H    0.171081
    23  H    0.162349
    24  H    0.149800
    25  H    0.134659
    26  H    0.187777
    27  H    0.126561
    28  H    0.158783
    29  H    0.160894
 Sum of Mulliken charges =   0.00000

 Dipole moment (field-independent basis, Debye):
    X=              0.6483    Y=             -0.4302    Z=             -1.7345  Tot=              1.9010
 Quadrupole moment (field-independent basis, Debye-Ang):
   XX=            -71.9071   YY=            -74.3389   ZZ=            -73.9583
   XY=              1.1663   XZ=              4.5894   YZ=             -0.0763

  Exact polarizability: 132.948  -0.147 121.660  -3.503   0.514 117.136
 Approx polarizability: 149.855  -0.061 142.447  -2.017   1.041 147.084

                      1                      2                      3
                      A                      A                      A
 Frequencies --     29.1702                66.3808                92.0304
 Red. masses --      4.2175                 3.4251                 2.3806
 Frc consts  --      0.0021                 0.0089                 0.0119
 IR Inten    --      0.2115                 0.6199                 0.1717

                      4                      5                      6
                      A                      A                      A
 Frequencies --    103.8769               190.4264               209.6665
 Red. masses --      3.5297                 1.9439                 1.5415
 Frc consts  --      0.0224                 0.0415                 0.0399
 IR Inten    --      0.4690                 1.3329                 0.2176

                      7                      8                      9
                      A                      A                      A
 Frequencies --    220.7273               230.1217               237.0749
 Red. masses --      1.4063                 1.6208                 1.5436
 Frc consts  --      0.0404                 0.0506                 0.0511
 IR Inten    --      0.4143                 0.5932                 0.5132

                     10                     11                     12
                      A                      A                      A
 Frequencies --    251.3662               294.5078               307.7099
 Red. masses --      1.5413                 1.7693                 1.1672
 Frc consts  --      0.0574                 0.0904                 0.0651
 IR Inten    --      0.1037                 0.2980                 0.0688

                     13                     14                     15
                      A                      A                      A
 Frequencies --    334.6852               351.4362               364.3752
 Red. masses --      2.3286                 1.1193                 2.2222
 Frc consts  --      0.1537                 0.0815                 0.1738
 IR Inten    --      0.4600                17.8064                 0.7289

                     16                     17                     18
                      A                      A                      A
 Frequencies --    390.3367               460.6127               510.5111
 Red. masses --      2.1150                 2.6364                 3.2823
 Frc consts  --      0.1899                 0.3296                 0.5040
 IR Inten    --      0.2540                 2.5684                 4.0220

                     19                     20                     21
                      A                      A                      A
 Frequencies --    558.0631               574.2539               699.4788
 Red. masses --      2.3579                 2.6297                 3.7682
 Frc consts  --      0.4327                 0.5109                 1.0863
 IR Inten    --      5.1675                12.5307                 6.5921

                     22                     23                     24
                      A                      A                      A
 Frequencies --    720.3283               842.0734               864.2062
 Red. masses --      2.3171                 1.3420                 2.3045
 Frc consts  --      0.7084                 0.5607                 1.0141
 IR Inten    --      2.1915                 2.0278                 0.5347

                     25                     26                     27
                      A                      A                      A
 Frequencies --    908.3348               924.0506               926.1918
 Red. masses --      1.8409                 1.2409                 1.2229
 Frc consts  --      0.8949                 0.6243                 0.6181
 IR Inten    --      7.1866                 0.0279                 0.1419

                     28                     29                     30
                      A                      A                      A
 Frequencies --    946.5039               947.8358               969.4359
 Red. masses --      1.3521                 1.4590                 1.7249
 Frc consts  --      0.7137                 0.7723                 0.9551
 IR Inten    --      0.0949                 0.5900                 3.0123

                     31                     32                     33
                      A                      A                      A
 Frequencies --    994.7620              1008.4444              1065.4850
 Red. masses --      1.6413                 1.6919                 1.4691
 Frc consts  --      0.9570                 1.0137                 0.9826
 IR Inten    --      2.5463                 4.2958                 2.6978

                     34                     35                     36
                      A                      A                      A
 Frequencies --   1110.6388              1143.5712              1150.5967
 Red. masses --      1.8269                 1.9985                 1.8223
 Frc consts  --      1.3277                 1.5399                 1.4214
 IR Inten    --     11.9989                 2.5249                15.2241

                     37                     38                     39
                      A                      A                      A
 Frequencies --   1162.6474              1193.1317              1203.9733
 Red. masses --      1.9225                 1.9892                 1.8220
 Frc consts  --      1.5311                 1.6684                 1.5561
 IR Inten    --     14.2539                10.5251                41.2038

                     40                     41                     42
                      A                      A                      A
 Frequencies --   1251.8249              1262.8658              1288.9893
 Red. masses --      2.0416                 1.9956                 1.6621
 Frc consts  --      1.8850                 1.8751                 1.6271
 IR Inten    --     53.7301                25.3401                19.9612

                     43                     44                     45
                      A                      A                      A
 Frequencies --   1333.7993              1341.2164              1346.9327
 Red. masses --      1.2193                 1.3340                 1.3407
 Frc consts  --      1.2781                 1.4139                 1.4331
 IR Inten    --     20.6459                10.9320                 1.7891

                     46                     47                     48
                      A                      A                      A
 Frequencies --   1394.9799              1398.9794              1404.4822
 Red. masses --      1.3131                 1.2927                 1.3580
 Frc consts  --      1.5055                 1.4906                 1.5782
 IR Inten    --      3.5552                35.1197                 3.5547

                     49                     50                     51
                      A                      A                      A
 Frequencies --   1409.1479              1414.6789              1429.8479
 Red. masses --      1.2829                 1.2477                 1.3638
 Frc consts  --      1.5010                 1.4712                 1.6428
 IR Inten    --      8.6007                 0.7110                21.7374

                     52                     53                     54
                      A                      A                      A
 Frequencies --   1439.6961              1482.2360              1484.7658
 Red. masses --      1.3654                 1.0645                 1.0448
 Frc consts  --      1.6675                 1.3779                 1.3570
 IR Inten    --     31.7772                 2.0686                 0.4089

                     55                     56                     57
                      A                      A                      A
 Frequencies --   1488.0595              1495.1355              1501.4210
 Red. masses --      1.0479                 1.0545                 1.0672
 Frc consts  --      1.3671                 1.3888                 1.4174
 IR Inten    --      1.9771                 2.4685                15.2236

                     58                     59                     60
                      A                      A                      A
 Frequencies --   1502.9311              1506.3396              1510.4478
 Red. masses --      1.0646                 1.0736                 1.0640
 Frc consts  --      1.4168                 1.4352                 1.4302
 IR Inten    --      0.3198                 2.3236                10.0354

                     61                     62                     63
                      A                      A                      A
 Frequencies --   1511.2967              1515.7647              2714.7797
 Red. masses --      1.0530                 1.0726                 1.0381
 Frc consts  --      1.4171                 1.4519                 4.5077
 IR Inten    --      4.8836                 9.9306                13.6976

                     64                     65                     66
                      A                      A                      A
 Frequencies --   2962.1066              3052.4632              3057.2774
 Red. masses --      1.0725                 1.0352                 1.0359
 Frc consts  --      5.5442                 5.6831                 5.7049
 IR Inten    --     56.3103                15.4831                15.3996

                     67                     68                     69
                      A                      A                      A
 Frequencies --   3060.1967              3062.9673              3077.2130
 Red. masses --      1.0382                 1.0369                 1.0817
 Frc consts  --      5.7286                 5.7313                 6.0348
 IR Inten    --     14.7741                17.7184                 6.8995

                     70                     71                     72
                      A                      A                      A
 Frequencies --   3089.3158              3097.6414              3107.6425
 Red. masses --      1.0833                 1.0622                 1.0865
 Frc consts  --      6.0915                 6.0051                 6.1820
 IR Inten    --     11.8777                16.1407                14.0580

                     73                     74                     75
                      A                      A                      A
 Frequencies --   3124.0738              3124.5067              3128.1530
 Red. masses --      1.1019                 1.1019                 1.1024
 Frc consts  --      6.3360                 6.3379                 6.3558
 IR Inten    --      3.6251                 1.8901                19.1748

                     76                     77                     78
                      A                      A                      A
 Frequencies --   3131.2426              3134.8722              3146.4837
 Red. masses --      1.1008                 1.0994                 1.1019
 Frc consts  --      6.3590                 6.3659                 6.4274
 IR Inten    --     34.2615                82.4107                 9.2515

                     79                     80                     81
                      A                      A                      A
 Frequencies --   3147.4104              3148.7466              3149.7662
 Red. masses --      1.1064                 1.1029                 1.1032
 Frc consts  --      6.4573                 6.4425                 6.4486
 IR Inten    --      9.4457                31.0798                13.3906

 - Thermochemistry -
 -------------------
 Temperature   298.150 Kelvin.  Pressure   1.00000 Atm.
 Atom     1 has atomic number 16 and mass  31.97207

 Molecular mass:   161.12382 amu.
 Principal axes and moments of inertia in atomic units:
                           1         2         3
     Eigenvalues --  1435.501872182.867112608.65516
           X            0.99987   0.00862   0.01354
           Y           -0.00856   0.99995  -0.00466
           Z           -0.01358   0.00455   0.99990
 This molecule is an asymmetric top.
 Rotational symmetry number  1.
 Warning -- assumption of classical behavior for rotation
           may cause significant error
 Rotational temperatures (Kelvin)      0.06034     0.03968     0.03320
 Rotational constants (GHZ):           1.25722     0.82678     0.69183
 Zero-point vibrational energy     692588.3 (Joules/Mol)
                                  165.53257 (Kcal/Mol)
 Warning -- explicit consideration of  20 degrees of freedom as
           vibrations may cause significant error
 Vibrational temperatures:     41.97    95.51   132.41   149.46   273.98
          (Kelvin)            301.66   317.58   331.09   341.10   361.66
                              423.73   442.73   481.54   505.64   524.25
                              561.61   662.72   734.51   802.93   826.22
                             1006.39  1036.39  1211.55  1243.40  1306.89
                             1329.50  1332.58  1361.81  1363.72  1394.80
                             1431.24  1450.92  1532.99  1597.96  1645.34
                             1655.45  1672.79  1716.65  1732.25  1801.09
                             1816.98  1854.57  1919.04  1929.71  1937.93
                             2007.06  2012.82  2020.73  2027.45  2035.40
                             2057.23  2071.40  2132.60  2136.24  2140.98
                             2151.16  2160.21  2162.38  2167.28  2173.19
                             2174.42  2180.84  3905.96  4261.81  4391.81
                             4398.73  4402.93  4406.92  4427.42  4444.83
                             4456.81  4471.20  4494.84  4495.46  4500.71
                             4505.15  4510.38  4527.08  4528.42  4530.34
                             4531.81

 Zero-point correction=                           0.263793 (Hartree/Particle)
 Thermal correction to Energy=                    0.277024
 Thermal correction to Enthalpy=                  0.277968
 Thermal correction to Gibbs Free Energy=         0.224395
 Sum of electronic and zero-point Energies=           -768.870846
 Sum of electronic and thermal Energies=              -768.857615
 Sum of electronic and thermal Enthalpies=            -768.856671
 Sum of electronic and thermal Free Energies=         -768.910244

                     E (Thermal)             CV                S
                      KCal/Mol        Cal/Mol-Kelvin    Cal/Mol-Kelvin
 Total                  173.835             49.247            112.753
 Electronic               0.000              0.000              0.000
 Translational            0.889              2.981             41.140
 Rotational               0.889              2.981             30.481
 Vibrational            172.058             43.285             41.132
 Vibration     1          0.593              1.984              5.885
 Vibration     2          0.598              1.970              4.258
 Vibration     3          0.602              1.955              3.616
 Vibration     4          0.605              1.946              3.380
 Vibration     5          0.634              1.853              2.224
 Vibration     6          0.642              1.826              2.047
 Vibration     7          0.647              1.810              1.953
 Vibration     8          0.652              1.795              1.878
 Vibration     9          0.656              1.784              1.825
 Vibration    10          0.663              1.760              1.721
 Vibration    11          0.689              1.684              1.448
 Vibration    12          0.698              1.659              1.375
 Vibration    13          0.716              1.606              1.237
 Vibration    14          0.728              1.572              1.160
 Vibration    15          0.738              1.546              1.103
 Vibration    16          0.758              1.491              0.999
 Vibration    17          0.818              1.337              0.764
 Vibration    18          0.866              1.227              0.632
 Vibration    19          0.914              1.122              0.528
 Vibration    20          0.931              1.087              0.496

 Optimization completed.
    -- Stationary point found.
 Normal termination of Gaussian 09 at Wed Nov 27 12:08:38 2019.
