 Gaussian 09, Revision D.01,
 Gaussian 09:  ES64L-G09RevD.01 24-Apr-2013

 ----------------------------------------------------------------------
 #P M062X/6-311++G(d,p) Opt(Tight,RCFC) Freq SCF(Conver=9) Int(Grid=Ult
 raFine) Geom(Check) Guess(Read)
 ----------------------------------------------------------------------

 -----------
 empa_sp own
 -----------
 Structure from the checkpoint file:  "empa_sp.chk"
 Charge =  0 Multiplicity = 1

 SCF Done:  E(RM062X) =  -686.791521120     A.U. after   14 cycles
 SCF Done:  E(RM062X) =  -686.792841796     A.U. after   13 cycles
 SCF Done:  E(RM062X) =  -686.793057978     A.U. after   13 cycles
 SCF Done:  E(RM062X) =  -686.793124931     A.U. after   12 cycles
 SCF Done:  E(RM062X) =  -686.793139058     A.U. after   12 cycles
 SCF Done:  E(RM062X) =  -686.793141411     A.U. after   11 cycles
 SCF Done:  E(RM062X) =  -686.793141672     A.U. after   10 cycles
 SCF Done:  E(RM062X) =  -686.793141745     A.U. after    9 cycles
 SCF Done:  E(RM062X) =  -686.793141749     A.U. after    8 cycles
 SCF Done:  E(RM062X) =  -686.793141747     A.U. after    7 cycles
 SCF Done:  E(RM062X) =  -686.793141742     A.U. after    8 cycles
 Optimization completed.
    -- Stationary point found.
 Normal termination of Gaussian 09 at Wed Nov 27 10:53:46 2019.

 ----------------------------------------------------------------------
 #P Geom=AllCheck Guess=TCheck SCRF=Check GenChk RM062X/6-311++G(d,p) F
 req
 ----------------------------------------------------------------------

 Structure from the checkpoint file:  "empa_sp.chk"
 -----------
 empa_sp own
 -----------
 Charge =  0 Multiplicity = 1

                         Standard orientation:
 ---------------------------------------------------------------------
 Center     Atomic      Atomic             Coordinates (Angstroms)
 Number     Number       Type             X           Y           Z
 ---------------------------------------------------------------------
      1         15           0        0.696849    0.064999    0.143718
      2          6           0        2.180143   -0.773340   -0.396005
      3          8           0       -0.445753   -0.875701   -0.466854
      4          8           0        0.681796    1.396906   -0.777425
      5          6           0       -1.774523   -0.856622    0.087372
      6          1           0        0.457012    2.179745   -0.263385
      7          1           0        2.236725   -1.744875    0.093091
      8          1           0        3.044560   -0.170442   -0.119920
      9          1           0        2.153489   -0.905244   -1.477387
     10          6           0       -2.490320    0.449655   -0.199499
     11          1           0       -1.705632   -1.037520    1.162242
     12          1           0       -2.281165   -1.696592   -0.385497
     13          1           0       -2.039108    1.271555    0.360136
     14          1           0       -3.535170    0.371243    0.107670
     15          1           0       -2.453405    0.680535   -1.265191
     16          8           0        0.536226    0.373603    1.579438
 ---------------------------------------------------------------------

 SCF Done:  E(RM062X) =  -686.793141742     A.U. after    1 cycles

 The electronic state is 1-A.
 Alpha  occ. eigenvalues --  -78.14354 -19.65610 -19.65163 -19.58061 -10.60275
 Alpha  occ. eigenvalues --  -10.55138 -10.53731  -6.95612  -5.07453  -5.07399
 Alpha  occ. eigenvalues --   -5.07214  -1.20883  -1.16209  -1.08560  -0.87616
 Alpha  occ. eigenvalues --   -0.83636  -0.74419  -0.67671  -0.61164  -0.57137
 Alpha  occ. eigenvalues --   -0.55113  -0.53281  -0.50893  -0.50071  -0.49037
 Alpha  occ. eigenvalues --   -0.48016  -0.45858  -0.44925  -0.42360  -0.40641
 Alpha  occ. eigenvalues --   -0.38722  -0.36694  -0.36578
 Alpha virt. eigenvalues --   -0.00601   0.00737   0.00884   0.02436   0.03059
 Alpha virt. eigenvalues --    0.03693   0.04213   0.05037   0.05964   0.06890
 Alpha virt. eigenvalues --    0.07437   0.08825   0.09341   0.09883   0.10619

 Mulliken charges:
               1
     1  P    0.418437
     2  C   -0.708126
     3  O   -0.150396
     4  O   -0.299580
     5  C   -0.414085
     6  H    0.313409
     7  H    0.215633
     8  H    0.206474
     9  H    0.231319
    10  C   -0.424930
    11  H    0.212029
    12  H    0.180107
    13  H    0.184438
    14  H    0.160183
    15  H    0.193499
    16  O   -0.318412
 Sum of Mulliken charges =   0.00000

 Dipole moment (field-independent basis, Debye):
    X=             -0.5763    Y=             -0.2001    Z=             -1.6194  Tot=              1.7305
 Quadrupole moment (field-independent basis, Debye-Ang):
   XX=            -41.9400   YY=            -45.8164   ZZ=            -58.8790
   XY=             -0.9503   XZ=             -1.9281   YZ=             -0.5632

  Exact polarizability:  73.615  -1.659  62.105  -1.526   0.674  59.947
 Approx polarizability:  72.812   0.188  71.348  -1.806   2.034  75.350

                      1                      2                      3
                      A                      A                      A
 Frequencies --     54.6864                81.4203               172.2613
 Red. masses --      2.8858                 3.4778                 1.4912
 Frc consts  --      0.0051                 0.0136                 0.0261
 IR Inten    --      0.6998                 1.7318                11.1708

                      4                      5                      6
                      A                      A                      A
 Frequencies --    180.9162               195.3828               250.5411
 Red. masses --      1.2872                 1.8828                 2.9224
 Frc consts  --      0.0248                 0.0423                 0.1081
 IR Inten    --      3.8128                53.6978                 8.5526

                      7                      8                      9
                      A                      A                      A
 Frequencies --    283.3038               305.2851               367.5223
 Red. masses --      1.3183                 1.5131                 4.4491
 Frc consts  --      0.0623                 0.0831                 0.3541
 IR Inten    --      3.2872                40.7845                26.2527

                     10                     11                     12
                      A                      A                      A
 Frequencies --    393.1288               454.2312               526.8025
 Red. masses --      3.8776                 5.4810                 4.2512
 Frc consts  --      0.3531                 0.6663                 0.6951
 IR Inten    --     22.8482                39.8474                43.2618

                     13                     14                     15
                      A                      A                      A
 Frequencies --    730.0014               803.5484               814.6824
 Red. masses --      3.9217                 2.1643                 1.3874
 Frc consts  --      1.2313                 0.8234                 0.5425
 IR Inten    --     20.4370                52.0951                 6.3318

                     16                     17                     18
                      A                      A                      A
 Frequencies --    862.7951               922.1282               943.8241
 Red. masses --      3.0489                 1.5941                 1.9094
 Frc consts  --      1.3373                 0.7986                 1.0021
 IR Inten    --    142.6410                36.2789                68.4540

                     19                     20                     21
                      A                      A                      A
 Frequencies --    960.2269              1016.6646              1105.4340
 Red. masses --      2.3062                 1.2829                 3.2855
 Frc consts  --      1.2528                 0.7813                 2.3655
 IR Inten    --    220.2035                38.9008               127.3493

                     22                     23                     24
                      A                      A                      A
 Frequencies --   1137.7512              1194.2644              1290.0094
 Red. masses --      2.8505                 1.6790                 6.7650
 Frc consts  --      2.1740                 1.4109                 6.6330
 IR Inten    --    186.8872                25.0528               226.1193

                     25                     26                     27
                      A                      A                      A
 Frequencies --   1335.6280              1354.4358              1400.8952
 Red. masses --      1.0909                 1.3651                 1.2318
 Frc consts  --      1.1466                 1.4755                 1.4243
 IR Inten    --      8.5692                68.8599                 6.3615

                     28                     29                     30
                      A                      A                      A
 Frequencies --   1430.9561              1459.8310              1461.7507
 Red. masses --      1.3243                 1.0441                 1.0483
 Frc consts  --      1.5977                 1.3109                 1.3197
 IR Inten    --     22.5650                 7.0923                 4.3750

                     31                     32                     33
                      A                      A                      A
 Frequencies --   1492.3242              1503.3255              1518.5465
 Red. masses --      1.0442                 1.0449                 1.0851
 Frc consts  --      1.3701                 1.3913                 1.4743
 IR Inten    --      4.7787                 3.7212                 4.9432

                     34                     35                     36
                      A                      A                      A
 Frequencies --   3068.5798              3090.7588              3093.4661
 Red. masses --      1.0354                 1.0331                 1.0618
 Frc consts  --      5.7440                 5.8147                 5.9868
 IR Inten    --      7.8962                 0.2025                23.2952

                     37                     38                     39
                      A                      A                      A
 Frequencies --   3137.3246              3149.4394              3163.1904
 Red. masses --      1.1037                 1.1015                 1.1068
 Frc consts  --      6.4005                 6.4372                 6.5247
 IR Inten    --      4.1836                18.8204                21.2994

                     40                     41                     42
                      A                      A                      A
 Frequencies --   3185.0594              3188.2159              3891.4186
 Red. masses --      1.1037                 1.1039                 1.0661
 Frc consts  --      6.5969                 6.6113                 9.5115
 IR Inten    --      0.0680                 0.0857               131.2477

 - Thermochemistry -
 -------------------
 Temperature   298.150 Kelvin.  Pressure   1.00000 Atm.
 Atom     1 has atomic number 15 and mass  30.97376

 Molecular mass:   124.02893 amu.
 Principal axes and moments of inertia in atomic units:
                           1         2         3
     Eigenvalues --   502.271681112.194431174.24124
           X            0.99943  -0.03101  -0.01335
           Y            0.03085   0.99945  -0.01218
           Z            0.01372   0.01176   0.99984
 This molecule is an asymmetric top.
 Rotational symmetry number  1.
 Warning -- assumption of classical behavior for rotation
           may cause significant error
 Rotational temperatures (Kelvin)      0.17244     0.07788     0.07376
 Rotational constants (GHZ):           3.59316     1.62268     1.53694
 Zero-point vibrational energy     340768.0 (Joules/Mol)
                                   81.44550 (Kcal/Mol)
 Warning -- explicit consideration of  12 degrees of freedom as
           vibrations may cause significant error
 Vibrational temperatures:     78.68   117.15   247.85   260.30   281.11
          (Kelvin)            360.47   407.61   439.24   528.78   565.62
                              653.54   757.95  1050.31  1156.13  1172.14
                             1241.37  1326.74  1357.95  1381.55  1462.75
                             1590.47  1636.97  1718.28  1856.03  1921.67
                             1948.73  2015.57  2058.82  2100.37  2103.13
                             2147.12  2162.95  2184.85  4415.00  4446.91
                             4450.80  4513.90  4531.34  4551.12  4582.58
                             4587.13  5598.88

 Zero-point correction=                           0.129792 (Hartree/Particle)
 Thermal correction to Energy=                    0.139070
 Thermal correction to Enthalpy=                  0.140015
 Thermal correction to Gibbs Free Energy=         0.095626
 Sum of electronic and zero-point Energies=           -686.663350
 Sum of electronic and thermal Energies=              -686.654071
 Sum of electronic and thermal Enthalpies=            -686.653127
 Sum of electronic and thermal Free Energies=         -686.697516

                     E (Thermal)             CV                S
                      KCal/Mol        Cal/Mol-Kelvin    Cal/Mol-Kelvin
 Total                   87.268             32.213             93.424
 Electronic               0.000              0.000              0.000
 Translational            0.889              2.981             40.360
 Rotational               0.889              2.981             27.975
 Vibrational             85.491             26.251             25.090
 Vibration     1          0.596              1.976              4.640
 Vibration     2          0.600              1.962              3.856
 Vibration     3          0.626              1.877              2.411
 Vibration     4          0.630              1.866              2.319
 Vibration     5          0.636              1.846              2.176
 Vibration     6          0.663              1.762              1.727
 Vibration     7          0.682              1.705              1.514
 Vibration     8          0.696              1.664              1.388
 Vibration     9          0.740              1.539              1.090
 Vibration    10          0.760              1.485              0.988
 Vibration    11          0.813              1.352              0.783
 Vibration    12          0.882              1.191              0.594

 Optimization completed.
    -- Stationary point found.
 Normal termination of Gaussian 09 at Wed Nov 27 11:01:00 2019.
