 Gaussian 09, Revision D.01,
 Gaussian 09:  ES64L-G09RevD.01 24-Apr-2013

 ----------------------------------------------------------------------
 #P M062X/6-311G(d,p) Opt Freq Int(Grid=UltraFine) SCF(Conver=9) Guess(
 Read) Geom(Check)
 ----------------------------------------------------------------------

 -----------------------------
 M062X Geom Opt & Freq ethanol
 -----------------------------
 Structure from the checkpoint file:  "ethanol.chk"
 Charge =  0 Multiplicity = 1

 SCF Done:  E(RM062X) =  -155.007078149     A.U. after   11 cycles
 SCF Done:  E(RM062X) =  -155.007153428     A.U. after   10 cycles
 SCF Done:  E(RM062X) =  -155.007158801     A.U. after    9 cycles
 Optimization completed.
    -- Stationary point found.
 Normal termination of Gaussian 09 at Wed Nov  1 17:02:09 2017.

 ----------------------------------------------------------------------
 #P Geom=AllCheck Guess=TCheck SCRF=Check GenChk RM062X/6-311G(d,p) Fre
 q
 ----------------------------------------------------------------------

 Structure from the checkpoint file:  "ethanol.chk"
 -----------------------------
 M062X Geom Opt & Freq ethanol
 -----------------------------
 Charge =  0 Multiplicity = 1

                         Standard orientation:
 ---------------------------------------------------------------------
 Center     Atomic      Atomic             Coordinates (Angstroms)
 Number     Number       Type             X           Y           Z
 ---------------------------------------------------------------------
      1          8           0       -1.141404   -0.397244    0.000000
      2          6           0       -0.086351    0.550928    0.000000
      3          1           0       -1.974799    0.077083    0.000000
      4          6           0        1.215356   -0.221907    0.000000
      5          1           0       -0.139742    1.194307    0.887180
      6          1           0       -0.139742    1.194307   -0.887180
      7          1           0        1.269904   -0.858404    0.884210
      8          1           0        2.071674    0.454938    0.000000
      9          1           0        1.269904   -0.858404   -0.884210
 ---------------------------------------------------------------------

 SCF Done:  E(RM062X) =  -155.007158801     A.U. after    1 cycles

 The electronic state is 1-A.
 Alpha  occ. eigenvalues --  -19.60559 -10.57889 -10.52005  -1.13652  -0.84380
 Alpha  occ. eigenvalues --   -0.69420  -0.59132  -0.53888  -0.47072  -0.44450
 Alpha  occ. eigenvalues --   -0.42977  -0.39565  -0.34246
 Alpha virt. eigenvalues --    0.07345   0.10512   0.13341   0.13664   0.15780
 Alpha virt. eigenvalues --    0.18212   0.23848   0.26278   0.34827   0.35149
 Alpha virt. eigenvalues --    0.40605   0.43210   0.46466   0.51942   0.59008

 Mulliken charges:
               1
     1  O   -0.425449
     2  C   -0.076891
     3  H    0.253976
     4  C   -0.401356
     5  H    0.115599
     6  H    0.115599
     7  H    0.144397
     8  H    0.129727
     9  H    0.144397
 Sum of Mulliken charges =   0.00000

 Dipole moment (field-independent basis, Debye):
    X=             -0.2555    Y=              1.6312    Z=              0.0000  Tot=              1.6511
 Quadrupole moment (field-independent basis, Debye-Ang):
   XX=            -16.9771   YY=            -20.6647   ZZ=            -20.0844
   XY=             -1.8711   XZ=              0.0000   YZ=              0.0000

  Exact polarizability:  31.428  -0.789  27.372   0.000   0.000  25.307
 Approx polarizability:  32.114   0.197  30.857   0.000   0.000  28.670

                      1                      2                      3
                      A                      A                      A
 Frequencies --    239.7030               276.0184               422.2571
 Red. masses --      1.1459                 1.0748                 2.5910
 Frc consts  --      0.0388                 0.0482                 0.2722
 IR Inten    --     92.8870                38.9337                12.0945

                      4                      5                      6
                      A                      A                      A
 Frequencies --    828.9667               922.8140              1056.2191
 Red. masses --      1.0799                 2.0424                 1.8568
 Frc consts  --      0.4372                 1.0247                 1.2205
 IR Inten    --      0.0121                 6.9871                44.1163

                      7                      8                      9
                      A                      A                      A
 Frequencies --   1142.4939              1187.6051              1282.0237
 Red. masses --      2.6959                 1.5317                 1.2950
 Frc consts  --      2.0733                 1.2728                 1.2540
 IR Inten    --     35.5336                 5.2708                90.0670

                     10                     11                     12
                      A                      A                      A
 Frequencies --   1313.4754              1405.2815              1469.8986
 Red. masses --      1.1026                 1.2387                 1.4688
 Frc consts  --      1.1208                 1.4413                 1.8697
 IR Inten    --      0.0042                 3.8926                11.8809

                     13                     14                     15
                      A                      A                      A
 Frequencies --   1486.3612              1508.5235              1539.9714
 Red. masses --      1.0382                 1.0509                 1.0926
 Frc consts  --      1.3514                 1.4090                 1.5267
 IR Inten    --      7.2616                 2.9360                 1.6469

                     16                     17                     18
                      A                      A                      A
 Frequencies --   3018.6155              3051.3834              3073.2151
 Red. masses --      1.0557                 1.1085                 1.0350
 Frc consts  --      5.6675                 6.0811                 5.7595
 IR Inten    --     59.9803                52.2858                12.9530

                     19                     20                     21
                      A                      A                      A
 Frequencies --   3151.4750              3155.3596              3912.2211
 Red. masses --      1.1025                 1.1038                 1.0667
 Frc consts  --      6.4515                 6.4748                 9.6188
 IR Inten    --     22.3636                24.7832                34.7687

 - Thermochemistry -
 -------------------
 Temperature   298.150 Kelvin.  Pressure   1.00000 Atm.
 Atom     1 has atomic number  8 and mass  15.99491

 Molecular mass:    46.04186 amu.
 Principal axes and moments of inertia in atomic units:
                           1         2         3
     Eigenvalues --    51.40095 190.38230 219.19711
           X            0.99910  -0.04237   0.00000
           Y            0.04237   0.99910   0.00000
           Z            0.00000   0.00000   1.00000
 This molecule is an asymmetric top.
 Rotational symmetry number  1.
 Rotational temperatures (Kelvin)      1.68506     0.45495     0.39514
 Rotational constants (GHZ):          35.11105     9.47956     8.23342
 Zero-point vibrational energy     212001.5 (Joules/Mol)
                                   50.66957 (Kcal/Mol)
 Warning -- explicit consideration of   3 degrees of freedom as
           vibrations may cause significant error
 Vibrational temperatures:    344.88   397.13   607.53  1192.70  1327.72
          (Kelvin)           1519.66  1643.79  1708.70  1844.54  1889.80
                             2021.88  2114.85  2138.54  2170.43  2215.67
                             4343.11  4390.25  4421.67  4534.26  4539.85
                             5628.81

 Zero-point correction=                           0.080747 (Hartree/Particle)
 Thermal correction to Energy=                    0.085058
 Thermal correction to Enthalpy=                  0.086002
 Thermal correction to Gibbs Free Energy=         0.055335
 Sum of electronic and zero-point Energies=           -154.926412
 Sum of electronic and thermal Energies=              -154.922101
 Sum of electronic and thermal Enthalpies=            -154.921157
 Sum of electronic and thermal Free Energies=         -154.951824

                     E (Thermal)             CV                S
                      KCal/Mol        Cal/Mol-Kelvin    Cal/Mol-Kelvin
 Total                   53.375             13.436             64.545
 Electronic               0.000              0.000              0.000
 Translational            0.889              2.981             37.406
 Rotational               0.889              2.981             22.288
 Vibrational             51.597              7.474              4.851
 Vibration     1          0.657              1.780              1.805
 Vibration     2          0.678              1.718              1.558
 Vibration     3          0.785              1.422              0.884

 Optimization completed.
    -- Stationary point found.
 Normal termination of Gaussian 09 at Wed Nov  1 17:02:45 2017.
