 Gaussian 09, Revision D.01,
 Gaussian 09:  ES64L-G09RevD.01 24-Apr-2013

 ----------------------------------------------------------------------
 #P M062X/6-311++G(d,p) Opt(RCFC,Tight) Freq SCRF(SMD) SCF(Conver=9) In
 t(Grid=UltraFine) Geom(Check) Guess(Read)
 ----------------------------------------------------------------------

 -----------------
 Int1c_sp opt freq
 -----------------
 Structure from the checkpoint file:  "Int1c_sp.chk"
 Charge =  0 Multiplicity = 1

 SCF Done:  E(RM062X) =  -1455.91326469     A.U. after    1 cycles
 SCF Done:  E(RM062X) =  -1455.91326469     A.U. after    8 cycles
 SCF Done:  E(RM062X) =  -1455.91326470     A.U. after    7 cycles
 Optimization completed.
    -- Stationary point found.
 Normal termination of Gaussian 09 at Tue Nov  5 12:04:30 2019.

 ----------------------------------------------------------------------
 #P Geom=AllCheck Guess=TCheck SCRF=Check GenChk RM062X/6-311++G(d,p) F
 req
 ----------------------------------------------------------------------

 Structure from the checkpoint file:  "Int1c_sp.chk"
 -----------------
 Int1c_sp opt freq
 -----------------
 Charge =  0 Multiplicity = 1

                         Standard orientation:
 ---------------------------------------------------------------------
 Center     Atomic      Atomic             Coordinates (Angstroms)
 Number     Number       Type             X           Y           Z
 ---------------------------------------------------------------------
      1         15           0        2.244138   -0.440446   -0.057583
      2         16           0        1.097403    0.280127    1.783508
      3          8           0        1.469698    0.477678   -1.147247
      4          6           0       -0.403438   -0.743995    2.008984
      5          6           0        0.833774    1.762918   -0.959582
      6          8           0        1.735597   -1.933240    0.349326
      7          6           0        3.770305    0.267556    0.628362
      8          1           0        4.331574   -0.563596    1.062160
      9          1           0        3.584235    1.015284    1.395443
     10          1           0        4.350002    0.692843   -0.192006
     11          1           0        0.062063    1.664986   -0.201136
     12          1           0        0.359236    1.952132   -1.923724
     13          6           0        1.839886    2.843810   -0.632515
     14          1           0        1.339971    3.814924   -0.659647
     15          1           0        2.652105    2.854445   -1.363017
     16          1           0        2.261462    2.709317    0.366051
     17          6           0       -1.721173   -0.170037    1.500648
     18          1           0       -0.206152   -1.739823    1.618453
     19          1           0       -0.501204   -0.847058    3.091932
     20          1           0       -2.509900   -0.822419    1.912693
     21          7           0       -1.842444   -0.009181    0.057111
     22          1           0       -1.865850    0.812500    1.959866
     23          6           0       -3.043839    0.765052   -0.321409
     24          6           0       -1.622110   -1.244852   -0.711879
     25          6           0       -1.434117   -0.953912   -2.202378
     26          6           0       -2.683369   -2.335806   -0.520669
     27          1           0       -0.669118   -1.642899   -0.355856
     28          1           0       -3.267118    0.506574   -1.358263
     29          6           0       -2.739910    2.263491   -0.282185
     30          6           0       -4.307737    0.469847    0.500831
     31          1           0       -0.800400   -0.077386   -2.353467
     32          1           0       -2.385348   -0.787452   -2.714097
     33          1           0       -0.954019   -1.809907   -2.683734
     34          1           0       -2.843467   -2.569296    0.535130
     35          1           0       -2.365883   -3.253985   -1.022742
     36          1           0       -3.638624   -2.030140   -0.957131
     37          1           0       -3.635537    2.841666   -0.526096
     38          1           0       -1.958459    2.520407   -1.000044
     39          1           0       -2.406186    2.569912    0.714068
     40          1           0       -5.165456    0.953847    0.026798
     41          1           0       -4.224829    0.867478    1.516130
     42          1           0       -4.517193   -0.599099    0.568739
     43          8           0        3.081916   -1.200516   -1.360168
     44          1           0        3.392944   -0.557027   -2.006796
     45          1           0        2.030409   -2.583109   -0.306384
 ---------------------------------------------------------------------

 SCF Done:  E(RM062X) =  -1455.91326470     A.U. after    1 cycles

 The electronic state is 1-A.
 Alpha  occ. eigenvalues --  -89.85121 -78.17376 -19.64914 -19.64887 -19.61263
 Alpha  occ. eigenvalues --  -14.71892 -10.58122 -10.55296 -10.55180 -10.54724
 Alpha  occ. eigenvalues --  -10.54677 -10.53686 -10.51989 -10.51048 -10.50980
 Alpha  occ. eigenvalues --  -10.50970 -10.50964  -8.21783  -6.97795  -6.13904
 Alpha  occ. eigenvalues --   -6.13649  -6.13360  -5.09703  -5.09565  -5.09499
 Alpha  occ. eigenvalues --   -1.20140  -1.15742  -1.10472  -1.01943  -0.87611
 Alpha  occ. eigenvalues --   -0.87365  -0.85815  -0.83675  -0.81742  -0.77222
 Alpha  occ. eigenvalues --   -0.75997  -0.75208  -0.73396  -0.68927  -0.67563
 Alpha  occ. eigenvalues --   -0.65840  -0.62135  -0.59389  -0.58779  -0.55902
 Alpha  occ. eigenvalues --   -0.54970  -0.54701  -0.53990  -0.52099  -0.50340
 Alpha  occ. eigenvalues --   -0.49995  -0.49420  -0.48928  -0.47877  -0.47462
 Alpha  occ. eigenvalues --   -0.47134  -0.45947  -0.45843  -0.45187  -0.44493
 Alpha  occ. eigenvalues --   -0.43641  -0.43394  -0.43266  -0.42886  -0.41914
 Alpha  occ. eigenvalues --   -0.41716  -0.40432  -0.39934  -0.39002  -0.38641
 Alpha  occ. eigenvalues --   -0.38324  -0.37483  -0.36827  -0.36647  -0.35946
 Alpha  occ. eigenvalues --   -0.30446  -0.27051  -0.25641
 Alpha virt. eigenvalues --   -0.00141   0.00834   0.00934   0.01129   0.02334
 Alpha virt. eigenvalues --    0.02558   0.02682   0.02932   0.03186   0.04218
 Alpha virt. eigenvalues --    0.04459   0.04617   0.05133   0.05203   0.05244

 Mulliken charges:
               1
     1  P    0.096880
     2  S   -0.147594
     3  O   -0.025871
     4  C   -0.705023
     5  C   -0.220865
     6  O   -0.233383
     7  C   -0.760848
     8  H    0.270397
     9  H    0.181515
    10  H    0.217605
    11  H    0.160075
    12  H    0.225528
    13  C   -0.636432
    14  H    0.219364
    15  H    0.190090
    16  H    0.158774
    17  C   -0.076550
    18  H    0.249337
    19  H    0.290565
    20  H    0.155997
    21  N    0.121893
    22  H    0.135607
    23  C   -0.122349
    24  C   -0.264937
    25  C   -0.412730
    26  C   -0.664573
    27  H    0.079322
    28  H    0.165705
    29  C   -0.398031
    30  C   -0.632813
    31  H    0.153529
    32  H    0.204916
    33  H    0.195044
    34  H    0.193745
    35  H    0.194098
    36  H    0.175296
    37  H    0.192312
    38  H    0.145182
    39  H    0.174465
    40  H    0.213811
    41  H    0.175024
    42  H    0.150431
    43  O   -0.525645
    44  H    0.361635
    45  H    0.379504
 Sum of Mulliken charges =   0.00000

 Dipole moment (field-independent basis, Debye):
    X=              0.0059    Y=              1.3313    Z=             -2.2093  Tot=              2.5794
 Quadrupole moment (field-independent basis, Debye-Ang):
   XX=           -110.8077   YY=           -119.9395   ZZ=           -128.3989
   XY=              5.4483   XZ=             -4.5154   YZ=             -4.0007

  Exact polarizability: 292.978   0.850 273.665 -14.089  -0.474 277.389
 Approx polarizability: 236.123   0.131 228.271  -9.990   1.171 232.850

                      1                      2                      3
                      A                      A                      A
 Frequencies --     36.5091                38.9828                67.4747
 Red. masses --      4.1781                 3.3425                 4.4600
 Frc consts  --      0.0033                 0.0030                 0.0120
 IR Inten    --      0.2902                 1.3422                 5.0652

                      4                      5                      6
                      A                      A                      A
 Frequencies --     73.1984                84.5167                91.1271
 Red. masses --      3.1175                 3.3082                 3.4219
 Frc consts  --      0.0098                 0.0139                 0.0167
 IR Inten    --      2.7348                 0.5380                 1.8066

                      7                      8                      9
                      A                      A                      A
 Frequencies --    103.0563               110.4273               130.6199
 Red. masses --      2.9174                 3.0006                 3.0823
 Frc consts  --      0.0183                 0.0216                 0.0310
 IR Inten    --      0.2930                 1.1979                 3.3585

                     10                     11                     12
                      A                      A                      A
 Frequencies --    158.4994               182.2909               191.2137
 Red. masses --      3.5958                 1.8940                 3.5519
 Frc consts  --      0.0532                 0.0371                 0.0765
 IR Inten    --      2.0534                 3.2524                 0.4005

                     13                     14                     15
                      A                      A                      A
 Frequencies --    192.5466               223.7724               241.7879
 Red. masses --      1.3679                 1.9194                 1.1786
 Frc consts  --      0.0299                 0.0566                 0.0406
 IR Inten    --      4.2247                 8.9852                 0.3903

                     16                     17                     18
                      A                      A                      A
 Frequencies --    255.1586               265.0647               273.6121
 Red. masses --      1.4204                 1.4142                 1.3712
 Frc consts  --      0.0545                 0.0585                 0.0605
 IR Inten    --     11.3774                23.6039                 0.5239

                     19                     20                     21
                      A                      A                      A
 Frequencies --    276.8242               282.2468               292.0510
 Red. masses --      2.3798                 3.0564                 2.6606
 Frc consts  --      0.1074                 0.1435                 0.1337
 IR Inten    --     13.9856                30.0710                55.1680

                     22                     23                     24
                      A                      A                      A
 Frequencies --    314.7301               333.5409               334.2995
 Red. masses --      1.2036                 1.9653                 1.2905
 Frc consts  --      0.0702                 0.1288                 0.0850
 IR Inten    --      3.1620                13.4289               183.1311

                     25                     26                     27
                      A                      A                      A
 Frequencies --    341.6468               353.3532               360.9790
 Red. masses --      2.1772                 2.7070                 3.7212
 Frc consts  --      0.1497                 0.1991                 0.2857
 IR Inten    --      8.7061                24.3157                53.2800

                     28                     29                     30
                      A                      A                      A
 Frequencies --    385.0549               393.6685               396.6744
 Red. masses --      2.2779                 4.3916                 2.1184
 Frc consts  --      0.1990                 0.4010                 0.1964
 IR Inten    --      4.3040                58.2395                 0.3589

                     31                     32                     33
                      A                      A                      A
 Frequencies --    416.9008               464.7707               483.2415
 Red. masses --      4.1608                 2.4691                 3.5422
 Frc consts  --      0.4261                 0.3142                 0.4874
 IR Inten    --    196.4948                 6.4994                60.1264

                     34                     35                     36
                      A                      A                      A
 Frequencies --    505.6892               516.7220               519.8035
 Red. masses --      3.5402                 2.7021                 1.1892
 Frc consts  --      0.5334                 0.4251                 0.1893
 IR Inten    --    213.0693                10.2712               181.8994

                     37                     38                     39
                      A                      A                      A
 Frequencies --    558.9991               574.3845               584.5633
 Red. masses --      2.4444                 2.4648                 7.0581
 Frc consts  --      0.4500                 0.4791                 1.4210
 IR Inten    --      9.6311                11.8931               113.5499

                     40                     41                     42
                      A                      A                      A
 Frequencies --    653.1952               683.9602               709.5680
 Red. masses --      6.8870                 4.3692                 2.6831
 Frc consts  --      1.7313                 1.2042                 0.7959
 IR Inten    --    461.3698                35.0871                 3.4571

                     43                     44                     45
                      A                      A                      A
 Frequencies --    774.5803               799.4072               842.4234
 Red. masses --      3.6575                 1.2228                 2.5695
 Frc consts  --      1.2929                 0.4604                 1.0744
 IR Inten    --    193.0792                 8.7647                76.0566

                     46                     47                     48
                      A                      A                      A
 Frequencies --    845.8221               875.9896               906.7902
 Red. masses --      2.3969                 2.1639                 1.7851
 Frc consts  --      1.0103                 0.9784                 0.8648
 IR Inten    --     66.9391                 2.6697               123.6538

                     49                     50                     51
                      A                      A                      A
 Frequencies --    916.2099               927.6062               928.6472
 Red. masses --      1.6622                 1.3183                 1.2143
 Frc consts  --      0.8221                 0.6683                 0.6170
 IR Inten    --     25.8075                 0.2782                 1.2232

                     52                     53                     54
                      A                      A                      A
 Frequencies --    945.9360               947.4838               956.6555
 Red. masses --      1.4509                 2.0199                 1.3953
 Frc consts  --      0.7649                 1.0684                 0.7524
 IR Inten    --      1.4072               163.2721                10.4561

                     55                     56                     57
                      A                      A                      A
 Frequencies --    961.0323               983.4921              1001.9830
 Red. masses --      1.3350                 1.7353                 1.9648
 Frc consts  --      0.7264                 0.9889                 1.1622
 IR Inten    --    137.5224                 6.9914                15.2219

                     58                     59                     60
                      A                      A                      A
 Frequencies --   1061.4874              1064.8064              1100.4199
 Red. masses --      1.3051                 1.6185                 3.6611
 Frc consts  --      0.8664                 1.0812                 2.6120
 IR Inten    --    374.1783                22.0847               245.6685

                     61                     62                     63
                      A                      A                      A
 Frequencies --   1111.3875              1118.8735              1135.9304
 Red. masses --      2.1409                 2.1812                 1.3275
 Frc consts  --      1.5581                 1.6088                 1.0092
 IR Inten    --     68.7869                 6.6574               285.6049

                     64                     65                     66
                      A                      A                      A
 Frequencies --   1139.0262              1143.9310              1157.5917
 Red. masses --      1.9167                 1.8706                 1.9287
 Frc consts  --      1.4651                 1.4422                 1.5228
 IR Inten    --     25.5946                17.7191                64.8316

                     67                     68                     69
                      A                      A                      A
 Frequencies --   1175.7334              1188.9026              1200.3435
 Red. masses --      1.6210                 2.0278                 1.8936
 Frc consts  --      1.3203                 1.6887                 1.6075
 IR Inten    --     17.9900                16.9224               108.8373

                     70                     71                     72
                      A                      A                      A
 Frequencies --   1237.8580              1269.7908              1285.6636
 Red. masses --      2.5131                 1.8563                 1.2650
 Frc consts  --      2.2688                 1.7635                 1.2320
 IR Inten    --     84.4257                63.9899                 7.7263

                     73                     74                     75
                      A                      A                      A
 Frequencies --   1324.6710              1331.7345              1338.3537
 Red. masses --      1.0798                 1.2003                 1.3131
 Frc consts  --      1.1164                 1.2543                 1.3858
 IR Inten    --      4.5775                23.7642                15.0934

                     76                     77                     78
                      A                      A                      A
 Frequencies --   1341.3029              1356.6829              1384.1454
 Red. masses --      1.1929                 1.2803                 1.2304
 Frc consts  --      1.2645                 1.3884                 1.3889
 IR Inten    --     34.5756                 8.5465                14.6949

                     79                     80                     81
                      A                      A                      A
 Frequencies --   1386.4896              1388.8770              1394.8449
 Red. masses --      1.3279                 1.3090                 1.2581
 Frc consts  --      1.5040                 1.4877                 1.4421
 IR Inten    --     16.3873                48.1017                 9.8471

                     82                     83                     84
                      A                      A                      A
 Frequencies --   1398.4688              1407.3767              1416.6837
 Red. masses --      1.2817                 1.2826                 1.3175
 Frc consts  --      1.4768                 1.4968                 1.5580
 IR Inten    --      5.2052                 2.9605                10.7114

                     85                     86                     87
                      A                      A                      A
 Frequencies --   1425.1159              1429.4086              1431.3853
 Red. masses --      1.3683                 1.0533                 1.2801
 Frc consts  --      1.6374                 1.2680                 1.5452
 IR Inten    --     29.0380                 4.4031                46.6498

                     88                     89                     90
                      A                      A                      A
 Frequencies --   1446.6711              1466.5691              1468.5197
 Red. masses --      1.0502                 1.0643                 1.0514
 Frc consts  --      1.2950                 1.3487                 1.3359
 IR Inten    --      7.4028                10.2933                16.1432

                     91                     92                     93
                      A                      A                      A
 Frequencies --   1469.2202              1470.8667              1472.2659
 Red. masses --      1.0626                 1.0455                 1.0540
 Frc consts  --      1.3515                 1.3326                 1.3460
 IR Inten    --      5.9344                 1.7221                 2.3496

                     94                     95                     96
                      A                      A                      A
 Frequencies --   1477.4342              1481.9773              1483.2525
 Red. masses --      1.0468                 1.0584                 1.0542
 Frc consts  --      1.3463                 1.3696                 1.3665
 IR Inten    --      9.4120                16.2341                21.1956

                     97                     98                     99
                      A                      A                      A
 Frequencies --   1485.7119              1495.9243              1500.0342
 Red. masses --      1.0575                 1.0761                 1.0661
 Frc consts  --      1.3752                 1.4188                 1.4134
 IR Inten    --      2.7639                 7.2778                10.6516

                    100                    101                    102
                      A                      A                      A
 Frequencies --   1501.4750              1503.3110              2969.5344
 Red. masses --      1.0804                 1.0798                 1.0711
 Frc consts  --      1.4351                 1.4378                 5.5648
 IR Inten    --      6.0785                18.5705               119.1141

                    103                    104                    105
                      A                      A                      A
 Frequencies --   3051.0016              3052.4044              3060.2162
 Red. masses --      1.0356                 1.0370                 1.0375
 Frc consts  --      5.6797                 5.6927                 5.7245
 IR Inten    --     28.7946                26.5917                36.7025

                    106                    107                    108
                      A                      A                      A
 Frequencies --   3060.8126              3064.7153              3079.3853
 Red. masses --      1.0374                 1.0358                 1.0342
 Frc consts  --      5.7262                 5.7320                 5.7780
 IR Inten    --     23.1138                14.6899                 0.5068

                    109                    110                    111
                      A                      A                      A
 Frequencies --   3085.3187              3094.4028              3099.0802
 Red. masses --      1.0874                 1.0752                 1.0791
 Frc consts  --      6.0987                 6.0660                 6.1064
 IR Inten    --     37.8923                18.6355                15.6014

                    112                    113                    114
                      A                      A                      A
 Frequencies --   3103.8232              3104.8894              3119.7240
 Red. masses --      1.0862                 1.0670                 1.1020
 Frc consts  --      6.1655                 6.0605                 6.3190
 IR Inten    --      2.0996                31.0815                13.2244

                    115                    116                    117
                      A                      A                      A
 Frequencies --   3121.5055              3126.6359              3129.7165
 Red. masses --      1.1018                 1.1017                 1.1010
 Frc consts  --      6.3254                 6.3453                 6.3539
 IR Inten    --     13.7641                70.8543                 9.1415

                    118                    119                    120
                      A                      A                      A
 Frequencies --   3132.2068              3139.3052              3140.8671
 Red. masses --      1.0984                 1.1016                 1.1030
 Frc consts  --      6.3493                 6.3964                 6.4107
 IR Inten    --    163.4231                32.4986                41.9341

                    121                    122                    123
                      A                      A                      A
 Frequencies --   3144.0946              3145.5621              3148.3147
 Red. masses --      1.1006                 1.1014                 1.1010
 Frc consts  --      6.4104                 6.4211                 6.4296
 IR Inten    --     34.6187                28.6394                35.5890

                    124                    125                    126
                      A                      A                      A
 Frequencies --   3164.7865              3169.1764              3183.6545
 Red. masses --      1.1025                 1.0957                 1.1017
 Frc consts  --      6.5058                 6.4841                 6.5792
 IR Inten    --      1.1149                 8.6227                 5.9285

                    127                    128                    129
                      A                      A                      A
 Frequencies --   3196.1872              3787.8669              3866.6159
 Red. masses --      1.1055                 1.0651                 1.0667
 Frc consts  --      6.6539                 9.0037                 9.3964
 IR Inten    --      2.2560               257.0896               158.8655

 - Thermochemistry -
 -------------------
 Temperature   298.150 Kelvin.  Pressure   1.00000 Atm.
 Atom     1 has atomic number 15 and mass  30.97376

 Molecular mass:   285.15275 amu.
 Principal axes and moments of inertia in atomic units:
                           1         2         3
     Eigenvalues --  3181.519686818.973887247.92690
           X            0.99987   0.01623  -0.00019
           Y           -0.01623   0.99963  -0.02188
           Z           -0.00017   0.02188   0.99976
 This molecule is an asymmetric top.
 Rotational symmetry number  1.
 Warning -- assumption of classical behavior for rotation
           may cause significant error
 Rotational temperatures (Kelvin)      0.02722     0.01270     0.01195
 Rotational constants (GHZ):           0.56726     0.26466     0.24900
 Zero-point vibrational energy    1043640.7 (Joules/Mol)
                                  249.43612 (Kcal/Mol)
 Warning -- explicit consideration of  39 degrees of freedom as
           vibrations may cause significant error
 Vibrational temperatures:     52.53    56.09    97.08   105.32   121.60
          (Kelvin)            131.11   148.27   158.88   187.93   228.04
                              262.28   275.11   277.03   321.96   347.88
                              367.12   381.37   393.67   398.29   406.09
                              420.20   452.83   479.89   480.98   491.55
                              508.40   519.37   554.01   566.40   570.73
                              599.83   668.70   695.28   727.57   743.45
                              747.88   804.27   826.41   841.06   939.80
                              984.06  1020.91  1114.45  1150.17  1212.06
                             1216.95  1260.35  1304.67  1318.22  1334.62
                             1336.11  1360.99  1363.22  1376.41  1382.71
                             1415.02  1441.63  1527.24  1532.02  1583.26
                             1599.04  1609.81  1634.35  1638.80  1645.86
                             1665.51  1691.62  1710.56  1727.02  1781.00
                             1826.94  1849.78  1905.90  1916.07  1925.59
                             1929.83  1951.96  1991.47  1994.85  1998.28
                             2006.87  2012.08  2024.90  2038.29  2050.42
                             2056.60  2059.44  2081.43  2110.06  2112.87
                             2113.88  2116.25  2118.26  2125.70  2132.23
                             2134.07  2137.61  2152.30  2158.21  2160.28
                             2162.93  4272.49  4389.71  4391.72  4402.96
                             4403.82  4409.44  4430.54  4439.08  4452.15
                             4458.88  4465.70  4467.24  4488.58  4491.14
                             4498.53  4502.96  4506.54  4516.75  4519.00
                             4523.65  4525.76  4529.72  4553.42  4559.73
                             4580.56  4598.59  5449.89  5563.19

 Zero-point correction=                           0.397502 (Hartree/Particle)
 Thermal correction to Energy=                    0.420202
 Thermal correction to Enthalpy=                  0.421146
 Thermal correction to Gibbs Free Energy=         0.347466
 Sum of electronic and zero-point Energies=          -1455.515763
 Sum of electronic and thermal Energies=             -1455.493063
 Sum of electronic and thermal Enthalpies=           -1455.492118
 Sum of electronic and thermal Free Energies=        -1455.565799

                     E (Thermal)             CV                S
                      KCal/Mol        Cal/Mol-Kelvin    Cal/Mol-Kelvin
 Total                  263.681             86.366            155.074
 Electronic               0.000              0.000              0.000
 Translational            0.889              2.981             42.842
 Rotational               0.889              2.981             33.419
 Vibrational            261.903             80.405             78.814
 Vibration     1          0.594              1.982              5.440
 Vibration     2          0.594              1.981              5.310
 Vibration     3          0.598              1.970              4.226
 Vibration     4          0.599              1.967              4.065
 Vibration     5          0.601              1.960              3.783
 Vibration     6          0.602              1.955              3.636
 Vibration     7          0.605              1.947              3.396
 Vibration     8          0.606              1.941              3.261
 Vibration     9          0.612              1.923              2.937
 Vibration    10          0.621              1.893              2.568
 Vibration    11          0.630              1.864              2.305
 Vibration    12          0.634              1.852              2.216
 Vibration    13          0.635              1.850              2.203
 Vibration    14          0.649              1.805              1.928
 Vibration    15          0.658              1.776              1.790
 Vibration    16          0.666              1.754              1.695
 Vibration    17          0.671              1.737              1.628
 Vibration    18          0.676              1.722              1.573
 Vibration    19          0.678              1.716              1.553
 Vibration    20          0.681              1.707              1.520
 Vibration    21          0.687              1.689              1.462
 Vibration    22          0.702              1.646              1.337
 Vibration    23          0.715              1.609              1.243
 Vibration    24          0.716              1.607              1.239
 Vibration    25          0.721              1.592              1.204
 Vibration    26          0.730              1.568              1.151
 Vibration    27          0.735              1.553              1.118
 Vibration    28          0.754              1.502              1.019
 Vibration    29          0.761              1.484              0.986
 Vibration    30          0.763              1.477              0.975
 Vibration    31          0.780              1.434              0.903
 Vibration    32          0.822              1.328              0.752
 Vibration    33          0.839              1.287              0.701
 Vibration    34          0.861              1.237              0.644
 Vibration    35          0.872              1.213              0.618
 Vibration    36          0.875              1.206              0.610
 Vibration    37          0.915              1.120              0.526
 Vibration    38          0.931              1.087              0.496
 Vibration    39          0.942              1.065              0.477

 Optimization completed.
    -- Stationary point found.
 Normal termination of Gaussian 09 at Tue Nov  5 14:34:52 2019.
