 Gaussian 09, Revision D.01,
 Gaussian 09:  ES64L-G09RevD.01 24-Apr-2013

 ----------------------------------------------------------------------
 #P M062X/6-311++G(d,p) Opt(RCFC,Tight) Freq SCRF(SMD) SCF(Conver=9) In
 t(Grid=UltraFine) Geom(Check) Guess(Read)
 ----------------------------------------------------------------------

 --------------------------------
 Int1a_sp opt tight freq; diffuse
 --------------------------------
 Structure from the checkpoint file:  "Int1a_sp.chk"
 Charge =  0 Multiplicity = 1

 SCF Done:  E(RM062X) =  -1455.95746480     A.U. after    1 cycles
 SCF Done:  E(RM062X) =  -1455.95746198     A.U. after    9 cycles
 SCF Done:  E(RM062X) =  -1455.95746049     A.U. after    9 cycles
 SCF Done:  E(RM062X) =  -1455.95746093     A.U. after    9 cycles
 SCF Done:  E(RM062X) =  -1455.95746119     A.U. after    8 cycles
 Optimization completed.
    -- Stationary point found.
 Normal termination of Gaussian 09 at Tue Nov  5 12:19:44 2019.

 ----------------------------------------------------------------------
 #P Geom=AllCheck Guess=TCheck SCRF=Check GenChk RM062X/6-311++G(d,p) F
 req
 ----------------------------------------------------------------------

 Structure from the checkpoint file:  "Int1a_sp.chk"
 --------------------------------
 Int1a_sp opt tight freq; diffuse
 --------------------------------
 Charge =  0 Multiplicity = 1

                         Standard orientation:
 ---------------------------------------------------------------------
 Center     Atomic      Atomic             Coordinates (Angstroms)
 Number     Number       Type             X           Y           Z
 ---------------------------------------------------------------------
      1         15           0        2.153568    0.029593   -0.709780
      2         16           0        0.881653   -1.592395   -1.100685
      3          8           0        2.816528   -0.322835    0.706225
      4          6           0       -0.480001   -0.800212   -2.053327
      5          6           0        2.050232   -0.293669    1.943037
      6          8           0        1.425412    1.343425   -0.742499
      7          6           0        3.567160   -0.054650   -1.798758
      8          1           0        3.219650    0.083461   -2.823665
      9          1           0        4.055816   -1.024302   -1.701561
     10          1           0        4.259126    0.746353   -1.531671
     11          1           0        1.090359    0.197217    1.766407
     12          1           0        2.629590    0.326016    2.627617
     13          6           0        1.883859   -1.697086    2.475666
     14          1           0        1.368740   -1.659420    3.437997
     15          1           0        2.859477   -2.163871    2.624413
     16          1           0        1.295568   -2.310412    1.790693
     17          6           0       -1.812201   -0.872557   -1.312654
     18          1           0       -0.186729    0.222868   -2.284041
     19          1           0       -0.549700   -1.354834   -2.989072
     20          1           0       -2.597614   -0.642580   -2.051063
     21          7           0       -1.888760   -0.014810   -0.142719
     22          1           0       -1.971844   -1.908823   -1.009338
     23          6           0       -2.726155   -0.553028    0.945368
     24          6           0       -2.103163    1.404603   -0.474468
     25          6           0       -1.604264    2.322579    0.640960
     26          6           0       -3.543657    1.773383   -0.850585
     27          1           0       -1.474548    1.598184   -1.349131
     28          1           0       -2.980354    0.296093    1.583580
     29          6           0       -1.915065   -1.538151    1.785998
     30          6           0       -4.044209   -1.206398    0.502806
     31          1           0       -0.576259    2.082314    0.920446
     32          1           0       -2.231988    2.252800    1.533473
     33          1           0       -1.632432    3.362089    0.303997
     34          1           0       -3.934601    1.133973   -1.645713
     35          1           0       -3.578146    2.807166   -1.204157
     36          1           0       -4.205845    1.694127    0.016383
     37          1           0       -2.528193   -1.955723    2.589610
     38          1           0       -1.047121   -1.044432    2.230302
     39          1           0       -1.557022   -2.368268    1.168919
     40          1           0       -4.669756   -1.390054    1.380193
     41          1           0       -3.868860   -2.171620    0.020047
     42          1           0       -4.607148   -0.576696   -0.187187
     43          8           0        2.026314    3.092506    1.376550
     44          1           0        2.688917    2.580050    1.852063
     45          1           0        1.761015    2.512776    0.640702
 ---------------------------------------------------------------------

 SCF Done:  E(RM062X) =  -1455.95746119     A.U. after    1 cycles

 The electronic state is 1-A.
 Alpha  occ. eigenvalues --  -89.89739 -78.14314 -19.66108 -19.61076 -19.60251
 Alpha  occ. eigenvalues --  -14.72352 -10.59660 -10.56670 -10.55623 -10.55560
 Alpha  occ. eigenvalues --  -10.55513 -10.54224 -10.52284 -10.51072 -10.51049
 Alpha  occ. eigenvalues --  -10.51044 -10.51039  -8.26393  -6.95665  -6.18505
 Alpha  occ. eigenvalues --   -6.18277  -6.17926  -5.07493  -5.07396  -5.07237
 Alpha  occ. eigenvalues --   -1.19256  -1.12220  -1.10518  -1.02491  -0.89801
 Alpha  occ. eigenvalues --   -0.87593  -0.87146  -0.84021  -0.82325  -0.77849
 Alpha  occ. eigenvalues --   -0.76799  -0.75990  -0.72618  -0.69212  -0.67738
 Alpha  occ. eigenvalues --   -0.64085  -0.60205  -0.60000  -0.57132  -0.56419
 Alpha  occ. eigenvalues --   -0.55526  -0.54660  -0.53438  -0.51798  -0.50310
 Alpha  occ. eigenvalues --   -0.49885  -0.49314  -0.48810  -0.48088  -0.47930
 Alpha  occ. eigenvalues --   -0.47464  -0.46835  -0.45831  -0.45438  -0.44756
 Alpha  occ. eigenvalues --   -0.44062  -0.43726  -0.43349  -0.43013  -0.42410
 Alpha  occ. eigenvalues --   -0.41268  -0.40811  -0.40501  -0.39556  -0.39453
 Alpha  occ. eigenvalues --   -0.38936  -0.38428  -0.37541  -0.36911  -0.36611
 Alpha  occ. eigenvalues --   -0.34989  -0.30729  -0.26194
 Alpha virt. eigenvalues --   -0.00064   0.00883   0.00911   0.01129   0.02150
 Alpha virt. eigenvalues --    0.02452   0.02483   0.02902   0.03126   0.03916
 Alpha virt. eigenvalues --    0.04178   0.04733   0.04836   0.04954   0.05182

 Mulliken charges:
               1
     1  P   -0.269981
     2  S    0.288352
     3  O    0.002509
     4  C   -0.452017
     5  C    0.000616
     6  O   -0.404375
     7  C   -0.862338
     8  H    0.240967
     9  H    0.259643
    10  H    0.223721
    11  H    0.102461
    12  H    0.249951
    13  C   -0.665062
    14  H    0.206829
    15  H    0.202761
    16  H    0.125423
    17  C   -0.317267
    18  H    0.136892
    19  H    0.330189
    20  H    0.170208
    21  N    0.310633
    22  H    0.146687
    23  C   -0.295065
    24  C   -0.119393
    25  C   -0.420320
    26  C   -0.665679
    27  H    0.188941
    28  H    0.168550
    29  C   -0.353568
    30  C   -0.604998
    31  H    0.094229
    32  H    0.150341
    33  H    0.202436
    34  H    0.186950
    35  H    0.187604
    36  H    0.180716
    37  H    0.191445
    38  H    0.190385
    39  H    0.134624
    40  H    0.207227
    41  H    0.167725
    42  H    0.146914
    43  O   -0.644144
    44  H    0.332018
    45  H    0.346262
 Sum of Mulliken charges =   0.00000

 Dipole moment (field-independent basis, Debye):
    X=             -0.3051    Y=             -5.6249    Z=             -1.5494  Tot=              5.8424
 Quadrupole moment (field-independent basis, Debye-Ang):
   XX=           -107.7295   YY=           -145.8054   ZZ=           -110.0967
   XY=             -5.5625   XZ=             -0.0704   YZ=             -3.4212

  Exact polarizability: 287.000   4.681 269.175   6.802   0.875 269.319
 Approx polarizability: 233.734   2.354 230.062   6.205   0.958 223.749

                      1                      2                      3
                      A                      A                      A
 Frequencies --     39.8230                47.0423                52.4145
 Red. masses --      5.1857                 4.3605                 4.0306
 Frc consts  --      0.0048                 0.0057                 0.0065
 IR Inten    --      5.2958                 5.8951                 1.3422

                      4                      5                      6
                      A                      A                      A
 Frequencies --     59.9237                66.7538                84.6559
 Red. masses --      4.7256                 3.4702                 4.7549
 Frc consts  --      0.0100                 0.0091                 0.0201
 IR Inten    --      3.2274                 0.7902                13.5633

                      7                      8                      9
                      A                      A                      A
 Frequencies --     87.6423               106.0291               115.7469
 Red. masses --      4.3061                 2.7263                 3.2637
 Frc consts  --      0.0195                 0.0181                 0.0258
 IR Inten    --      5.3220                 0.9913                 8.3160

                     10                     11                     12
                      A                      A                      A
 Frequencies --    122.9423               138.9850               173.0890
 Red. masses --      2.8999                 3.5617                 4.1214
 Frc consts  --      0.0258                 0.0405                 0.0728
 IR Inten    --      1.7667                 8.1314                14.4698

                     13                     14                     15
                      A                      A                      A
 Frequencies --    188.5211               202.4359               216.3584
 Red. masses --      2.3472                 1.4041                 1.7731
 Frc consts  --      0.0491                 0.0339                 0.0489
 IR Inten    --      1.8852                 1.0330                 9.1602

                     16                     17                     18
                      A                      A                      A
 Frequencies --    220.6072               236.9166               238.0575
 Red. masses --      2.1430                 1.4880                 1.7388
 Frc consts  --      0.0614                 0.0492                 0.0581
 IR Inten    --     21.6855                99.9548                34.0520

                     19                     20                     21
                      A                      A                      A
 Frequencies --    246.0127               247.9401               249.6106
 Red. masses --      1.1101                 1.0592                 1.8632
 Frc consts  --      0.0396                 0.0384                 0.0684
 IR Inten    --      0.3305                 3.1936                 0.8502

                     22                     23                     24
                      A                      A                      A
 Frequencies --    265.9941               271.4695               301.8724
 Red. masses --      1.3473                 2.1712                 2.6509
 Frc consts  --      0.0562                 0.0943                 0.1423
 IR Inten    --      2.2379                 9.0977                10.6845

                     25                     26                     27
                      A                      A                      A
 Frequencies --    308.8222               315.3831               323.4652
 Red. masses --      2.1387                 3.2862                 1.1000
 Frc consts  --      0.1202                 0.1926                 0.0678
 IR Inten    --      8.1808                 2.3510                 0.1440

                     28                     29                     30
                      A                      A                      A
 Frequencies --    342.7987               364.0732               381.4149
 Red. masses --      2.4599                 5.0926                 2.2145
 Frc consts  --      0.1703                 0.3977                 0.1898
 IR Inten    --      0.0232                 6.9923                 4.9158

                     31                     32                     33
                      A                      A                      A
 Frequencies --    401.1290               406.3244               431.6771
 Red. masses --      1.3356                 1.6945                 3.2510
 Frc consts  --      0.1266                 0.1648                 0.3569
 IR Inten    --     93.2541                40.9344                 6.5996

                     34                     35                     36
                      A                      A                      A
 Frequencies --    454.5463               463.4923               482.0665
 Red. masses --      3.8776                 2.9953                 1.0971
 Frc consts  --      0.4720                 0.3791                 0.1502
 IR Inten    --     18.8100                49.6017               290.4404

                     37                     38                     39
                      A                      A                      A
 Frequencies --    503.2172               534.0940               563.9143
 Red. masses --      2.7022                 7.8149                 2.3669
 Frc consts  --      0.4032                 1.3134                 0.4435
 IR Inten    --     41.5213               226.2752                 8.3392

                     40                     41                     42
                      A                      A                      A
 Frequencies --    587.7501               667.6006               712.4542
 Red. masses --      2.6758                 5.1730                 2.4991
 Frc consts  --      0.5446                 1.3584                 0.7474
 IR Inten    --     25.7530                36.3056                 7.2475

                     43                     44                     45
                      A                      A                      A
 Frequencies --    738.7137               796.4769               821.1608
 Red. masses --      3.5844                 4.0150                 1.1316
 Frc consts  --      1.1525                 1.5007                 0.4496
 IR Inten    --    201.6844                93.5565                 3.9841

                     46                     47                     48
                      A                      A                      A
 Frequencies --    855.7044               875.5308               920.5492
 Red. masses --      2.2168                 2.0887                 1.2590
 Frc consts  --      0.9564                 0.9433                 0.6286
 IR Inten    --      0.2967                 4.4967                 2.5659

                     49                     50                     51
                      A                      A                      A
 Frequencies --    925.5751               928.1271               932.8273
 Red. masses --      1.3518                 1.4115                 1.3874
 Frc consts  --      0.6823                 0.7164                 0.7113
 IR Inten    --     63.0740                 4.2093               183.8661

                     52                     53                     54
                      A                      A                      A
 Frequencies --    936.0046               945.0979               951.9902
 Red. masses --      1.4403                 1.4224                 1.5429
 Frc consts  --      0.7434                 0.7486                 0.8239
 IR Inten    --     30.4572                 0.3046                 6.2391

                     55                     56                     57
                      A                      A                      A
 Frequencies --    954.7565               963.3524              1006.1961
 Red. masses --      1.8369                 2.4896                 2.0271
 Frc consts  --      0.9865                 1.3613                 1.2091
 IR Inten    --     29.3382               140.3385                14.3887

                     58                     59                     60
                      A                      A                      A
 Frequencies --   1065.4688              1070.9042              1106.1055
 Red. masses --      3.6099                 1.8156                 2.1465
 Frc consts  --      2.4145                 1.2268                 1.5473
 IR Inten    --    349.4841                67.0670                20.3106

                     61                     62                     63
                      A                      A                      A
 Frequencies --   1121.7019              1140.7782              1148.5575
 Red. masses --      2.1156                 2.1130                 1.9704
 Frc consts  --      1.5683                 1.6201                 1.5315
 IR Inten    --      3.9912                 5.3708                38.3322

                     64                     65                     66
                      A                      A                      A
 Frequencies --   1157.9483              1163.7883              1187.3147
 Red. masses --      1.8749                 7.5738                 1.9847
 Frc consts  --      1.4811                 6.0438                 1.6485
 IR Inten    --     25.8251               451.9526                24.3490

                     67                     68                     69
                      A                      A                      A
 Frequencies --   1188.4296              1204.4917              1239.9774
 Red. masses --      1.7830                 1.7211                 2.5554
 Frc consts  --      1.4837                 1.4712                 2.3150
 IR Inten    --     97.0410               100.6521                90.7998

                     70                     71                     72
                      A                      A                      A
 Frequencies --   1264.9900              1298.7315              1326.2385
 Red. masses --      1.4905                 1.4353                 1.1000
 Frc consts  --      1.4052                 1.4264                 1.1400
 IR Inten    --     35.4358                18.8721                24.0977

                     73                     74                     75
                      A                      A                      A
 Frequencies --   1335.8814              1338.7806              1347.9038
 Red. masses --      1.1969                 1.3608                 1.2630
 Frc consts  --      1.2584                 1.4370                 1.3520
 IR Inten    --     52.1210                 9.8667                65.6406

                     76                     77                     78
                      A                      A                      A
 Frequencies --   1348.4997              1387.4203              1389.8909
 Red. masses --      1.3327                 1.3240                 1.2953
 Frc consts  --      1.4278                 1.5016                 1.4743
 IR Inten    --      2.1926                14.4727                35.3932

                     79                     80                     81
                      A                      A                      A
 Frequencies --   1392.4527              1395.6149              1401.8634
 Red. masses --      1.2154                 1.2880                 1.3066
 Frc consts  --      1.3885                 1.4781                 1.5129
 IR Inten    --     11.0921                 7.9196                11.8093

                     82                     83                     84
                      A                      A                      A
 Frequencies --   1405.6889              1417.7347              1423.0054
 Red. masses --      1.2574                 1.3257                 1.3227
 Frc consts  --      1.4639                 1.5699                 1.5781
 IR Inten    --      8.4744                21.1883                40.1858

                     85                     86                     87
                      A                      A                      A
 Frequencies --   1429.3954              1438.0442              1438.4223
 Red. masses --      1.0470                 1.2782                 1.0446
 Frc consts  --      1.2604                 1.5573                 1.2735
 IR Inten    --     14.9667                34.8823                13.8533

                     88                     89                     90
                      A                      A                      A
 Frequencies --   1460.5466              1463.5704              1464.9995
 Red. masses --      1.0941                 1.0423                 1.0418
 Frc consts  --      1.3751                 1.3154                 1.3174
 IR Inten    --     25.5016                10.1974                 3.0897

                     91                     92                     93
                      A                      A                      A
 Frequencies --   1468.9328              1470.2831              1476.4793
 Red. masses --      1.0624                 1.0528                 1.0567
 Frc consts  --      1.3506                 1.3409                 1.3573
 IR Inten    --      3.4735                 3.3919                 2.2280

                     94                     95                     96
                      A                      A                      A
 Frequencies --   1479.4050              1482.2610              1485.2761
 Red. masses --      1.0557                 1.0537                 1.0475
 Frc consts  --      1.3614                 1.3641                 1.3615
 IR Inten    --      4.4301                12.5526                13.1972

                     97                     98                     99
                      A                      A                      A
 Frequencies --   1488.0550              1490.0125              1494.2767
 Red. masses --      1.0729                 1.0725                 1.0850
 Frc consts  --      1.3997                 1.4029                 1.4274
 IR Inten    --      5.4083                13.0512                10.5934

                    100                    101                    102
                      A                      A                      A
 Frequencies --   1523.6420              1619.8233              2986.7054
 Red. masses --      1.0817                 1.0716                 1.0721
 Frc consts  --      1.4795                 1.6566                 5.6346
 IR Inten    --     10.9273               152.8364                94.9717

                    103                    104                    105
                      A                      A                      A
 Frequencies --   3048.2959              3053.5251              3058.7439
 Red. masses --      1.0356                 1.0356                 1.0376
 Frc consts  --      5.6697                 5.6891                 5.7195
 IR Inten    --     28.8142                26.3078                21.5513

                    106                    107                    108
                      A                      A                      A
 Frequencies --   3063.1151              3070.0627              3077.0649
 Red. masses --      1.0383                 1.0356                 1.0831
 Frc consts  --      5.7398                 5.7508                 6.0424
 IR Inten    --     30.6854                10.8405                22.5737

                    109                    110                    111
                      A                      A                      A
 Frequencies --   3078.3032              3096.0525              3103.2301
 Red. masses --      1.0329                 1.0857                 1.0586
 Frc consts  --      5.7666                 6.1316                 6.0063
 IR Inten    --      2.2147                11.4907                25.3408

                    112                    113                    114
                      A                      A                      A
 Frequencies --   3115.0058              3119.2420              3120.2072
 Red. masses --      1.0647                 1.1012                 1.0874
 Frc consts  --      6.0869                 6.3129                 6.2373
 IR Inten    --     12.6514                16.2948                16.2392

                    115                    116                    117
                      A                      A                      A
 Frequencies --   3124.3813              3129.3834              3130.0913
 Red. masses --      1.1019                 1.1004                 1.1020
 Frc consts  --      6.3376                 6.3492                 6.3614
 IR Inten    --      3.0168                49.1704               116.3104

                    118                    119                    120
                      A                      A                      A
 Frequencies --   3131.9074              3132.1549              3139.9677
 Red. masses --      1.1022                 1.1002                 1.1028
 Frc consts  --      6.3696                 6.3592                 6.4063
 IR Inten    --      3.9217               115.1379                39.8023

                    121                    122                    123
                      A                      A                      A
 Frequencies --   3142.6388              3149.4100              3155.7792
 Red. masses --      1.1046                 1.1020                 1.1003
 Frc consts  --      6.4272                 6.4403                 6.4560
 IR Inten    --      1.2001                23.2673                27.4936

                    124                    125                    126
                      A                      A                      A
 Frequencies --   3162.3834              3174.0241              3175.8395
 Red. masses --      1.1074                 1.1046                 1.1051
 Frc consts  --      6.5253                 6.5563                 6.5670
 IR Inten    --     39.7877                 0.7572                 0.6852

                    127                    128                    129
                      A                      A                      A
 Frequencies --   3182.7490              3647.4873              3891.1287
 Red. masses --      1.1051                 1.0608                 1.0688
 Frc consts  --      6.5954                 8.3152                 9.5349
 IR Inten    --      0.7320               846.7349               146.1203

 - Thermochemistry -
 -------------------
 Temperature   298.150 Kelvin.  Pressure   1.00000 Atm.
 Atom     1 has atomic number 15 and mass  30.97376

 Molecular mass:   285.15275 amu.
 Principal axes and moments of inertia in atomic units:
                           1         2         3
     Eigenvalues --  3836.672477168.676137486.60019
           X            0.99999  -0.00252   0.00466
           Y            0.00319   0.98887  -0.14874
           Z           -0.00424   0.14875   0.98887
 This molecule is an asymmetric top.
 Rotational symmetry number  1.
 Warning -- assumption of classical behavior for rotation
           may cause significant error
 Rotational temperatures (Kelvin)      0.02258     0.01208     0.01157
 Rotational constants (GHZ):           0.47039     0.25175     0.24106
 Zero-point vibrational energy    1038834.7 (Joules/Mol)
                                  248.28745 (Kcal/Mol)
 Warning -- explicit consideration of  40 degrees of freedom as
           vibrations may cause significant error
 Vibrational temperatures:     57.30    67.68    75.41    86.22    96.04
          (Kelvin)            121.80   126.10   152.55   166.53   176.89
                              199.97   249.04   271.24   291.26   311.29
                              317.40   340.87   342.51   353.96   356.73
                              359.13   382.71   390.58   434.33   444.33
                              453.77   465.39   493.21   523.82   548.77
                              577.13   584.61   621.09   653.99   666.86
                              693.59   724.02   768.44   811.35   845.64
                              960.53  1025.06  1062.84  1145.95  1181.47
                             1231.17  1259.69  1324.46  1331.69  1335.37
                             1342.13  1346.70  1359.78  1369.70  1373.68
                             1386.05  1447.69  1532.97  1540.79  1591.44
                             1613.88  1641.32  1652.52  1666.03  1674.43
                             1708.28  1709.88  1732.99  1784.05  1820.04
                             1868.58  1908.16  1922.03  1926.20  1939.33
                             1940.19  1996.19  1999.74  2003.43  2007.98
                             2016.97  2022.47  2039.80  2047.38  2056.58
                             2069.02  2069.57  2101.40  2105.75  2107.80
                             2113.46  2115.41  2124.32  2128.53  2132.64
                             2136.98  2140.98  2143.79  2149.93  2192.18
                             2330.56  4297.20  4385.81  4393.34  4400.84
                             4407.13  4417.13  4427.20  4428.99  4454.52
                             4464.85  4481.79  4487.89  4489.28  4495.28
                             4502.48  4503.50  4506.11  4506.47  4517.71
                             4521.55  4531.29  4540.46  4549.96  4566.71
                             4569.32  4579.26  5247.91  5598.46

 Zero-point correction=                           0.395671 (Hartree/Particle)
 Thermal correction to Energy=                    0.419763
 Thermal correction to Enthalpy=                  0.420707
 Thermal correction to Gibbs Free Energy=         0.343391
 Sum of electronic and zero-point Energies=          -1455.561790
 Sum of electronic and thermal Energies=             -1455.537698
 Sum of electronic and thermal Enthalpies=           -1455.536754
 Sum of electronic and thermal Free Energies=        -1455.614070

                     E (Thermal)             CV                S
                      KCal/Mol        Cal/Mol-Kelvin    Cal/Mol-Kelvin
 Total                  263.405             88.459            162.725
 Electronic               0.000              0.000              0.000
 Translational            0.889              2.981             42.842
 Rotational               0.889              2.981             33.687
 Vibrational            261.628             82.497             86.197
 Vibration     1          0.594              1.981              5.268
 Vibration     2          0.595              1.979              4.938
 Vibration     3          0.596              1.977              4.724
 Vibration     4          0.597              1.973              4.460
 Vibration     5          0.598              1.970              4.247
 Vibration     6          0.601              1.960              3.780
 Vibration     7          0.601              1.958              3.712
 Vibration     8          0.605              1.944              3.340
 Vibration     9          0.608              1.936              3.170
 Vibration    10          0.610              1.930              3.054
 Vibration    11          0.615              1.914              2.818
 Vibration    12          0.627              1.876              2.402
 Vibration    13          0.633              1.856              2.242
 Vibration    14          0.639              1.836              2.111
 Vibration    15          0.645              1.816              1.989
 Vibration    16          0.647              1.810              1.954
 Vibration    17          0.656              1.784              1.826
 Vibration    18          0.656              1.782              1.817
 Vibration    19          0.660              1.769              1.759
 Vibration    20          0.662              1.766              1.745
 Vibration    21          0.662              1.763              1.733
 Vibration    22          0.672              1.735              1.622
 Vibration    23          0.675              1.726              1.587
 Vibration    24          0.694              1.670              1.407
 Vibration    25          0.698              1.657              1.369
 Vibration    26          0.703              1.644              1.334
 Vibration    27          0.708              1.628              1.293
 Vibration    28          0.722              1.590              1.199
 Vibration    29          0.738              1.546              1.105
 Vibration    30          0.751              1.510              1.034
 Vibration    31          0.767              1.468              0.959
 Vibration    32          0.771              1.456              0.940
 Vibration    33          0.793              1.401              0.853
 Vibration    34          0.813              1.351              0.782
 Vibration    35          0.821              1.331              0.756
 Vibration    36          0.838              1.290              0.705
 Vibration    37          0.859              1.243              0.650
 Vibration    38          0.889              1.175              0.578
 Vibration    39          0.920              1.109              0.516
 Vibration    40          0.945              1.058              0.471

 Optimization completed.
    -- Stationary point found.
 Normal termination of Gaussian 09 at Tue Nov  5 14:29:43 2019.
