 Gaussian 09, Revision D.01,
 Gaussian 09:  ES64L-G09RevD.01 24-Apr-2013

 ----------------------------------------------------------------------
 #P M062X 6-311G(d,p) Opt(RCFC) Freq SCRF(SMD) SCF(Conver=9) Int(Grid=U
 ltraFine) Geom(Check) Guess(Read)
 ----------------------------------------------------------------------

 ------------------------------------
 Opt & Freq TBP Int from VXh13; M062X
 ------------------------------------
 Structure from the checkpoint file:  "VXh13_1a23_SMD.chk"
 Charge =  0 Multiplicity = 1

 SCF Done:  E(RM062X) =  -1455.91184638     A.U. after    1 cycles
 Optimization completed on the basis of negligible forces.
    -- Stationary point found.
 Normal termination of Gaussian 09 at Wed Feb  7 08:52:29 2018.

 ----------------------------------------------------------------------
 #P Geom=AllCheck Guess=TCheck SCRF=Check GenChk RM062X/6-311G(d,p) Fre
 q
 ----------------------------------------------------------------------

 Structure from the checkpoint file:  "VXh13_1a23_SMD.chk"
 ------------------------------------
 Opt & Freq TBP Int from VXh13; M062X
 ------------------------------------
 Charge =  0 Multiplicity = 1

                         Standard orientation:
 ---------------------------------------------------------------------
 Center     Atomic      Atomic             Coordinates (Angstroms)
 Number     Number       Type             X           Y           Z
 ---------------------------------------------------------------------
      1         15           0       -2.122649   -0.605104    0.049256
      2         16           0       -0.871109   -0.447487   -1.662549
      3          8           0       -2.799594    0.898156   -0.413017
      4          6           0        0.581172   -1.540199   -1.467457
      5          6           0       -2.104036    2.138738   -0.269928
      6          8           0       -1.689563    0.057668    1.476723
      7          6           0       -3.753572   -1.379680   -0.157165
      8          1           0       -3.643408   -2.362357   -0.614127
      9          1           0       -4.417788   -0.758070   -0.749754
     10          1           0       -4.165202   -1.509923    0.847204
     11          1           0       -2.138835    2.644346   -1.238802
     12          1           0       -1.052608    1.967064   -0.027403
     13          6           0       -2.762752    2.993290    0.795933
     14          1           0       -2.266180    3.964371    0.860268
     15          1           0       -2.701439    2.507046    1.771163
     16          1           0       -3.814550    3.161403    0.554439
     17          6           0        1.883820   -0.771773   -1.258031
     18          1           0        0.389977   -2.255903   -0.673676
     19          1           0        0.663648   -2.096163   -2.402327
     20          1           0        2.684068   -1.529766   -1.281160
     21          7           0        1.939666    0.067909   -0.071137
     22          1           0        2.044276   -0.131299   -2.128976
     23          6           0        3.064818    1.025710   -0.112497
     24          6           0        1.779657   -0.663586    1.196453
     25          6           0        1.478730    0.287089    2.357152
     26          6           0        2.940312   -1.593782    1.569161
     27          1           0        0.887131   -1.280051    1.063731
     28          1           0        3.259692    1.319194    0.920380
     29          6           0        2.655252    2.285367   -0.875591
     30          6           0        4.380031    0.473647   -0.682770
     31          1           0        0.739390    1.037841    2.068607
     32          1           0        2.375201    0.803145    2.709316
     33          1           0        1.080479   -0.281372    3.202000
     34          1           0        3.186648   -2.284169    0.758460
     35          1           0        2.670986   -2.189687    2.445295
     36          1           0        3.835830   -1.018342    1.820453
     37          1           0        3.477674    3.005322   -0.898027
     38          1           0        1.792443    2.761718   -0.404836
     39          1           0        2.392479    2.047414   -1.910751
     40          1           0        5.181965    1.195022   -0.507182
     41          1           0        4.311003    0.314783   -1.762272
     42          1           0        4.667222   -0.470272   -0.216738
     43          8           0       -1.429049   -2.074208    0.628579
     44          1           0       -1.173630   -0.562947    2.009370
     45          1           0       -1.581578   -2.819195    0.035408
 ---------------------------------------------------------------------

 SCF Done:  E(RM062X) =  -1455.91184638     A.U. after    1 cycles

 The electronic state is 1-A.
 Alpha  occ. eigenvalues --  -89.88644 -78.16146 -19.64222 -19.60885 -19.60680
 Alpha  occ. eigenvalues --  -14.72042 -10.57213 -10.55627 -10.55368 -10.55272
 Alpha  occ. eigenvalues --  -10.55202 -10.52997 -10.51334 -10.51141 -10.51008
 Alpha  occ. eigenvalues --  -10.51000 -10.50997  -8.25284  -6.96650  -6.17401
 Alpha  occ. eigenvalues --   -6.17135  -6.16828  -5.08527  -5.08449  -5.08311
 Alpha  occ. eigenvalues --   -1.18954  -1.12400  -1.10625  -1.02219  -0.88947
 Alpha  occ. eigenvalues --   -0.87511  -0.85679  -0.82966  -0.81156  -0.77711
 Alpha  occ. eigenvalues --   -0.76625  -0.76052  -0.71461  -0.69053  -0.67684
 Alpha  occ. eigenvalues --   -0.66757  -0.62547  -0.59757  -0.57893  -0.55443
 Alpha  occ. eigenvalues --   -0.54925  -0.53583  -0.53242  -0.52050  -0.51058
 Alpha  occ. eigenvalues --   -0.49862  -0.49282  -0.48795  -0.47623  -0.46512
 Alpha  occ. eigenvalues --   -0.46161  -0.45755  -0.45131  -0.45026  -0.44526
 Alpha  occ. eigenvalues --   -0.43742  -0.43623  -0.43364  -0.42393  -0.42120
 Alpha  occ. eigenvalues --   -0.41540  -0.40675  -0.39993  -0.39678  -0.38508
 Alpha  occ. eigenvalues --   -0.37984  -0.37140  -0.36728  -0.36059  -0.34498
 Alpha  occ. eigenvalues --   -0.33485  -0.29865  -0.26000
 Alpha virt. eigenvalues --    0.04524   0.07082   0.07608   0.08315   0.09211
 Alpha virt. eigenvalues --    0.09774   0.10860   0.11186   0.11615   0.12430
 Alpha virt. eigenvalues --    0.12748   0.13163   0.13861   0.14389   0.14923

 Mulliken charges:
               1
     1  P    1.045816
     2  S   -0.038954
     3  O   -0.633028
     4  C   -0.487045
     5  C   -0.093102
     6  O   -0.580939
     7  C   -0.624897
     8  H    0.194723
     9  H    0.184774
    10  H    0.207641
    11  H    0.158796
    12  H    0.161150
    13  C   -0.406626
    14  H    0.149142
    15  H    0.143150
    16  H    0.144307
    17  C   -0.159828
    18  H    0.203965
    19  H    0.211214
    20  H    0.156438
    21  N   -0.360829
    22  H    0.178311
    23  C   -0.159041
    24  C   -0.156129
    25  C   -0.411073
    26  C   -0.395574
    27  H    0.162991
    28  H    0.175963
    29  C   -0.361728
    30  C   -0.402777
    31  H    0.151332
    32  H    0.149947
    33  H    0.156566
    34  H    0.152402
    35  H    0.149371
    36  H    0.145950
    37  H    0.143867
    38  H    0.146107
    39  H    0.141517
    40  H    0.151718
    41  H    0.143918
    42  H    0.152842
    43  O   -0.698308
    44  H    0.362949
    45  H    0.343010
 Sum of Mulliken charges =   0.00000

 Dipole moment (field-independent basis, Debye):
    X=              2.8145    Y=             -4.2292    Z=              0.4265  Tot=              5.0980
 Quadrupole moment (field-independent basis, Debye-Ang):
   XX=           -121.5470   YY=           -113.7640   ZZ=           -124.5364
   XY=              7.8206   XZ=             -1.7772   YZ=              3.0347

  Exact polarizability: 271.435  -6.479 257.021 -11.921   0.558 252.943
 Approx polarizability: 221.487  -4.887 214.413  -7.325  -0.901 216.618

                      1                      2                      3
                      A                      A                      A
 Frequencies --     15.5468                62.6027                78.2284
 Red. masses --      3.8078                 3.6534                 3.0089
 Frc consts  --      0.0005                 0.0084                 0.0108
 IR Inten    --      0.3916                 0.3501                 1.3678

                      4                      5                      6
                      A                      A                      A
 Frequencies --     81.8879                92.4065               103.4694
 Red. masses --      3.3791                 2.7240                 3.2792
 Frc consts  --      0.0134                 0.0137                 0.0207
 IR Inten    --      0.3877                 2.3407                 1.5842

                      7                      8                      9
                      A                      A                      A
 Frequencies --    115.2957               116.3385               128.2237
 Red. masses --      2.0421                 2.2333                 2.5785
 Frc consts  --      0.0160                 0.0178                 0.0250
 IR Inten    --      1.2497                 0.5754                 1.6517

                     10                     11                     12
                      A                      A                      A
 Frequencies --    148.0731               161.8361               196.5496
 Red. masses --      3.0669                 2.9527                 3.0015
 Frc consts  --      0.0396                 0.0456                 0.0683
 IR Inten    --      1.2874                 3.6927                 3.0295

                     13                     14                     15
                      A                      A                      A
 Frequencies --    204.8893               231.5376               234.5720
 Red. masses --      2.6416                 1.5044                 1.4226
 Frc consts  --      0.0653                 0.0475                 0.0461
 IR Inten    --      0.8028                 3.5507                 1.0918

                     16                     17                     18
                      A                      A                      A
 Frequencies --    236.8103               261.7247               269.8555
 Red. masses --      1.5373                 2.5731                 1.5198
 Frc consts  --      0.0508                 0.1038                 0.0652
 IR Inten    --      1.3074                 2.9134                 0.1301

                     19                     20                     21
                      A                      A                      A
 Frequencies --    275.1029               298.7622               312.7956
 Red. masses --      1.1374                 1.9638                 2.1465
 Frc consts  --      0.0507                 0.1033                 0.1237
 IR Inten    --      0.2664                13.9194                 0.8953

                     22                     23                     24
                      A                      A                      A
 Frequencies --    318.6397               324.3544               344.4315
 Red. masses --      2.2835                 1.2255                 2.5950
 Frc consts  --      0.1366                 0.0760                 0.1814
 IR Inten    --     10.5020                 3.5802                 0.0381

                     25                     26                     27
                      A                      A                      A
 Frequencies --    363.6924               369.2184               392.6522
 Red. masses --      4.1865                 3.6565                 2.5080
 Frc consts  --      0.3263                 0.2937                 0.2278
 IR Inten    --      7.6170                 0.0131                 2.1641

                     28                     29                     30
                      A                      A                      A
 Frequencies --    403.1253               409.9508               461.3547
 Red. masses --      2.2983                 2.6503                 1.6227
 Frc consts  --      0.2201                 0.2624                 0.2035
 IR Inten    --      4.1072               101.8262               293.1773

                     31                     32                     33
                      A                      A                      A
 Frequencies --    469.8479               485.8401               495.4264
 Red. masses --      2.6315                 2.3920                 4.6304
 Frc consts  --      0.3423                 0.3327                 0.6696
 IR Inten    --     42.9920                71.2692               229.9670

                     34                     35                     36
                      A                      A                      A
 Frequencies --    520.6068               525.1271               560.6591
 Red. masses --      3.9663                 3.3291                 1.5114
 Frc consts  --      0.6334                 0.5409                 0.2799
 IR Inten    --     37.6197                 2.2689                61.2685

                     37                     38                     39
                      A                      A                      A
 Frequencies --    566.7516               582.7374               586.9044
 Red. masses --      2.4554                 2.3296                 2.7216
 Frc consts  --      0.4647                 0.4661                 0.5523
 IR Inten    --     29.6824                22.6459                53.2642

                     40                     41                     42
                      A                      A                      A
 Frequencies --    666.7344               690.4795               710.0246
 Red. masses --      7.7440                 4.9010                 2.5236
 Frc consts  --      2.0283                 1.3767                 0.7496
 IR Inten    --    593.8896                23.3343                26.8536

                     43                     44                     45
                      A                      A                      A
 Frequencies --    740.4171               816.2267               847.2849
 Red. masses --      5.5834                 1.1365                 2.0938
 Frc consts  --      1.8034                 0.4461                 0.8856
 IR Inten    --    272.2943                 7.0439                 0.6918

                     46                     47                     48
                      A                      A                      A
 Frequencies --    849.5988               876.9393               910.0341
 Red. masses --      3.5785                 2.1908                 1.7060
 Frc consts  --      1.5219                 0.9926                 0.8324
 IR Inten    --    153.2518                 1.7282               256.8514

                     49                     50                     51
                      A                      A                      A
 Frequencies --    922.9679               930.2013               931.4027
 Red. masses --      1.6400                 2.0008                 1.2840
 Frc consts  --      0.8231                 1.0200                 0.6563
 IR Inten    --     18.4790               112.3826                 5.9770

                     52                     53                     54
                      A                      A                      A
 Frequencies --    936.4396               949.8167               956.3783
 Red. masses --      1.2453                 1.4597                 1.4699
 Frc consts  --      0.6434                 0.7759                 0.7921
 IR Inten    --      1.7942                 0.0486                 0.4131

                     55                     56                     57
                      A                      A                      A
 Frequencies --    975.3452               979.4616              1004.8804
 Red. masses --      1.2779                 1.7729                 1.9920
 Frc consts  --      0.7163                 1.0021                 1.1851
 IR Inten    --    113.8868                25.2058                16.6822

                     58                     59                     60
                      A                      A                      A
 Frequencies --   1067.2477              1075.7536              1095.0094
 Red. masses --      1.6148                 1.2226                 3.9315
 Frc consts  --      1.0837                 0.8336                 2.7774
 IR Inten    --      5.7303               154.0900               257.4395

                     61                     62                     63
                      A                      A                      A
 Frequencies --   1115.1905              1118.4743              1140.5713
 Red. masses --      2.0898                 2.2265                 1.8603
 Frc consts  --      1.5312                 1.6411                 1.4259
 IR Inten    --     24.5257                84.2755                31.7664

                     64                     65                     66
                      A                      A                      A
 Frequencies --   1145.1704              1148.2533              1159.7695
 Red. masses --      1.3012                 1.9179                 1.8912
 Frc consts  --      1.0054                 1.4899                 1.4987
 IR Inten    --    217.2560                31.5437                 5.4897

                     67                     68                     69
                      A                      A                      A
 Frequencies --   1186.3571              1191.6169              1205.3003
 Red. masses --      1.6543                 2.0151                 1.8682
 Frc consts  --      1.3718                 1.6859                 1.5991
 IR Inten    --     29.1458                13.2004               105.7140

                     70                     71                     72
                      A                      A                      A
 Frequencies --   1239.9227              1276.3286              1288.0722
 Red. masses --      2.6189                 1.7069                 1.2972
 Frc consts  --      2.3723                 1.6382                 1.2681
 IR Inten    --     92.3056                63.1286                10.5896

                     73                     74                     75
                      A                      A                      A
 Frequencies --   1336.8876              1337.2655              1339.7871
 Red. masses --      1.2039                 1.3600                 1.0877
 Frc consts  --      1.2678                 1.4330                 1.1503
 IR Inten    --     23.1414                 7.0761                 3.8066

                     76                     77                     78
                      A                      A                      A
 Frequencies --   1345.5365              1367.5544              1387.8289
 Red. masses --      1.1791                 1.2580                 1.2464
 Frc consts  --      1.2577                 1.3861                 1.4144
 IR Inten    --     48.8190                 6.3839                 7.2995

                     79                     80                     81
                      A                      A                      A
 Frequencies --   1392.4488              1396.4556              1401.4755
 Red. masses --      1.3245                 1.2918                 1.2785
 Frc consts  --      1.5131                 1.4842                 1.4795
 IR Inten    --     19.7258                38.7722                 5.8924

                     82                     83                     84
                      A                      A                      A
 Frequencies --   1407.1695              1410.3855              1421.3824
 Red. masses --      1.3235                 1.2398                 1.3240
 Frc consts  --      1.5441                 1.4531                 1.5760
 IR Inten    --      9.1420                 0.7559                30.6899

                     85                     86                     87
                      A                      A                      A
 Frequencies --   1430.2783              1433.3485              1434.7559
 Red. masses --      1.0539                 1.3221                 1.2810
 Frc consts  --      1.2702                 1.6003                 1.5537
 IR Inten    --     11.8989                26.8921                39.2761

                     88                     89                     90
                      A                      A                      A
 Frequencies --   1464.9308              1468.2607              1469.4103
 Red. masses --      1.0861                 1.0404                 1.0480
 Frc consts  --      1.3733                 1.3215                 1.3332
 IR Inten    --     21.9217                10.2051                 0.7275

                     91                     92                     93
                      A                      A                      A
 Frequencies --   1471.5823              1474.2763              1476.6427
 Red. masses --      1.0460                 1.0505                 1.0577
 Frc consts  --      1.3346                 1.3452                 1.3588
 IR Inten    --      1.7282                12.1628                 5.4188

                     94                     95                     96
                      A                      A                      A
 Frequencies --   1479.5557              1481.3449              1485.2445
 Red. masses --      1.0500                 1.0577                 1.0427
 Frc consts  --      1.3543                 1.3675                 1.3552
 IR Inten    --      2.0053                16.0531                 6.8430

                     97                     98                     99
                      A                      A                      A
 Frequencies --   1487.2493              1498.0425              1499.6984
 Red. masses --      1.0548                 1.0733                 1.0823
 Frc consts  --      1.3747                 1.4191                 1.4341
 IR Inten    --      9.7369                 4.9706                 4.2715

                    100                    101                    102
                      A                      A                      A
 Frequencies --   1501.1919              1515.5068              2982.3698
 Red. masses --      1.0798                 1.0840                 1.0714
 Frc consts  --      1.4337                 1.4668                 5.6149
 IR Inten    --     12.2435                 8.8237                99.6078

                    103                    104                    105
                      A                      A                      A
 Frequencies --   3052.4496              3053.8176              3058.4601
 Red. masses --      1.0362                 1.0356                 1.0367
 Frc consts  --      5.6884                 5.6902                 5.7137
 IR Inten    --     29.3568                27.9783                20.5312

                    106                    107                    108
                      A                      A                      A
 Frequencies --   3063.8425              3066.8806              3075.7338
 Red. masses --      1.0374                 1.0355                 1.0653
 Frc consts  --      5.7376                 5.7386                 5.9378
 IR Inten    --     30.3055                24.1270                62.9746

                    109                    110                    111
                      A                      A                      A
 Frequencies --   3083.2026              3097.6590              3100.7898
 Red. masses --      1.0380                 1.0853                 1.0887
 Frc consts  --      5.8137                 6.1356                 6.1675
 IR Inten    --      0.1721                 0.9477                30.5518

                    112                    113                    114
                      A                      A                      A
 Frequencies --   3107.0274              3116.2564              3123.3604
 Red. masses --      1.0872                 1.0691                 1.1021
 Frc consts  --      6.1838                 6.1168                 6.3348
 IR Inten    --      2.0607                19.7853                12.4942

                    115                    116                    117
                      A                      A                      A
 Frequencies --   3125.3192              3128.0250              3129.6323
 Red. masses --      1.1017                 1.0976                 1.1014
 Frc consts  --      6.3403                 6.3277                 6.3562
 IR Inten    --      5.6282                 3.9026                81.2481

                    118                    119                    120
                      A                      A                      A
 Frequencies --   3132.4031              3132.9482              3134.4807
 Red. masses --      1.1015                 1.1032                 1.1006
 Frc consts  --      6.3677                 6.3796                 6.3708
 IR Inten    --     29.7847                71.9556                74.4581

                    121                    122                    123
                      A                      A                      A
 Frequencies --   3139.9180              3143.3406              3151.1284
 Red. masses --      1.0999                 1.1010                 1.1012
 Frc consts  --      6.3891                 6.4096                 6.4422
 IR Inten    --     79.1220                55.6881                30.5478

                    124                    125                    126
                      A                      A                      A
 Frequencies --   3153.0752              3167.0388              3201.0394
 Red. masses --      1.1043                 1.0997                 1.0956
 Frc consts  --      6.4688                 6.4986                 6.6144
 IR Inten    --     57.9945                 1.7442                 1.1790

                    127                    128                    129
                      A                      A                      A
 Frequencies --   3214.4101              3826.4489              3855.9388
 Red. masses --      1.1047                 1.0659                 1.0666
 Frc consts  --      6.7252                 9.1950                 9.3433
 IR Inten    --      3.1699               245.2579               141.1903

 - Thermochemistry -
 -------------------
 Temperature   298.150 Kelvin.  Pressure   1.00000 Atm.
 Atom     1 has atomic number 15 and mass  30.97376

 Molecular mass:   285.15275 amu.
 Principal axes and moments of inertia in atomic units:
                           1         2         3
     Eigenvalues --  3308.487537122.782417714.88562
           X            0.99998  -0.00510  -0.00322
           Y            0.00511   0.99999   0.00183
           Z            0.00321  -0.00185   0.99999
 This molecule is an asymmetric top.
 Rotational symmetry number  1.
 Warning -- assumption of classical behavior for rotation
           may cause significant error
 Rotational temperatures (Kelvin)      0.02618     0.01216     0.01123
 Rotational constants (GHZ):           0.54549     0.25338     0.23393
 Zero-point vibrational energy    1047856.9 (Joules/Mol)
                                  250.44381 (Kcal/Mol)
 Warning -- explicit consideration of  39 degrees of freedom as
           vibrations may cause significant error
 Vibrational temperatures:     22.37    90.07   112.55   117.82   132.95
          (Kelvin)            148.87   165.88   167.39   184.49   213.04
                              232.85   282.79   294.79   333.13   337.50
                              340.72   376.56   388.26   395.81   429.85
                              450.04   458.45   466.67   495.56   523.27
                              531.22   564.94   580.01   589.83   663.79
                              676.01   699.01   712.81   749.04   755.54
                              806.66   815.43   838.43   844.42   959.28
                              993.44  1021.57  1065.29  1174.37  1219.05
                             1222.38  1261.72  1309.33  1327.94  1338.35
                             1340.08  1347.33  1366.57  1376.01  1403.30
                             1409.23  1445.80  1535.53  1547.77  1575.47
                             1604.51  1609.23  1641.03  1647.64  1652.08
                             1668.65  1706.90  1714.47  1734.16  1783.97
                             1836.35  1853.25  1923.48  1924.02  1927.65
                             1935.92  1967.60  1996.77  2003.42  2009.19
                             2016.41  2024.60  2029.23  2045.05  2057.85
                             2062.27  2064.29  2107.71  2112.50  2114.15
                             2117.28  2121.15  2124.56  2128.75  2131.32
                             2136.93  2139.82  2155.35  2157.73  2159.88
                             2180.47  4290.96  4391.79  4393.76  4400.44
                             4408.18  4412.55  4425.29  4436.04  4456.83
                             4461.34  4470.31  4483.59  4493.81  4496.63
                             4500.52  4502.84  4506.82  4507.61  4509.81
                             4517.64  4522.56  4533.77  4536.57  4556.66
                             4605.58  4624.81  5505.40  5547.83

 Zero-point correction=                           0.399108 (Hartree/Particle)
 Thermal correction to Energy=                    0.421395
 Thermal correction to Enthalpy=                  0.422339
 Thermal correction to Gibbs Free Energy=         0.349273
 Sum of electronic and zero-point Energies=          -1455.512739
 Sum of electronic and thermal Energies=             -1455.490451
 Sum of electronic and thermal Enthalpies=           -1455.489507
 Sum of electronic and thermal Free Energies=        -1455.562573

                     E (Thermal)             CV                S
                      KCal/Mol        Cal/Mol-Kelvin    Cal/Mol-Kelvin
 Total                  264.430             85.429            153.781
 Electronic               0.000              0.000              0.000
 Translational            0.889              2.981             42.842
 Rotational               0.889              2.981             33.563
 Vibrational            262.652             79.467             77.376
 Vibration     1          0.593              1.986              7.134
 Vibration     2          0.597              1.972              4.373
 Vibration     3          0.600              1.964              3.935
 Vibration     4          0.600              1.962              3.845
 Vibration     5          0.602              1.955              3.608
 Vibration     6          0.605              1.946              3.388
 Vibration     7          0.608              1.937              3.178
 Vibration     8          0.608              1.936              3.160
 Vibration     9          0.611              1.925              2.973
 Vibration    10          0.617              1.905              2.697
 Vibration    11          0.622              1.889              2.528
 Vibration    12          0.636              1.845              2.165
 Vibration    13          0.640              1.833              2.089
 Vibration    14          0.653              1.793              1.867
 Vibration    15          0.654              1.788              1.844
 Vibration    16          0.656              1.784              1.827
 Vibration    17          0.669              1.743              1.650
 Vibration    18          0.674              1.729              1.597
 Vibration    19          0.677              1.719              1.564
 Vibration    20          0.692              1.676              1.424
 Vibration    21          0.701              1.649              1.348
 Vibration    22          0.705              1.638              1.317
 Vibration    23          0.709              1.627              1.288
 Vibration    24          0.723              1.587              1.192
 Vibration    25          0.737              1.547              1.106
 Vibration    26          0.742              1.535              1.083
 Vibration    27          0.760              1.486              0.990
 Vibration    28          0.769              1.463              0.951
 Vibration    29          0.774              1.449              0.927
 Vibration    30          0.819              1.336              0.762
 Vibration    31          0.827              1.317              0.738
 Vibration    32          0.842              1.281              0.694
 Vibration    33          0.851              1.260              0.670
 Vibration    34          0.876              1.204              0.609
 Vibration    35          0.880              1.194              0.598
 Vibration    36          0.916              1.116              0.523
 Vibration    37          0.923              1.103              0.511
 Vibration    38          0.940              1.069              0.480
 Vibration    39          0.944              1.060              0.473

 Optimization completed on the basis of negligible forces.
    -- Stationary point found.
 Normal termination of Gaussian 09 at Wed Feb  7 10:05:46 2018.
