 Gaussian 09, Revision D.01,
 Gaussian 09:  ES64L-G09RevD.01 24-Apr-2013

 ----------------------------------------------------------------------
 #P M062X/6-311++G(d,p) Freq SCRF(SMD) SCF(Conver=9) Int(Grid=UltraFine
 ) Geom(Check) Guess(Read)
 ----------------------------------------------------------------------

 ----------------------------------------------
 Int3a_sp freq on opt struct; diffuse functions
 ----------------------------------------------
 Structure from the checkpoint file:  "Int3a_sp.chk"
 Charge =  0 Multiplicity = 1

                         Standard orientation:
 ---------------------------------------------------------------------
 Center     Atomic      Atomic             Coordinates (Angstroms)
 Number     Number       Type             X           Y           Z
 ---------------------------------------------------------------------
      1         15           0       -2.367444   -0.617306    0.267780
      2         16           0       -1.333418   -1.180763   -1.473278
      3          8           0       -3.751729   -0.059310   -0.305749
      4          6           0        0.352124   -1.301489   -0.747302
      5          6           0       -3.824732    1.271367   -0.894090
      6          8           0       -1.588452    0.363825    1.094064
      7          6           0       -2.854605   -2.093163    1.145100
      8          1           0       -1.950956   -2.627617    1.445187
      9          1           0       -3.464388   -2.726756    0.501164
     10          1           0       -3.416675   -1.797879    2.033239
     11          1           0       -4.496337    1.171136   -1.744963
     12          1           0       -2.836873    1.560277   -1.261536
     13          6           0       -4.351029    2.253230    0.124959
     14          1           0       -4.456663    3.235344   -0.340888
     15          1           0       -3.666075    2.339841    0.970284
     16          1           0       -5.329728    1.936588    0.489814
     17          6           0        1.077520    0.041091   -0.818467
     18          1           0        0.270840   -1.671426    0.276015
     19          1           0        0.847715   -2.066693   -1.343800
     20          1           0        1.346911    0.227178   -1.866862
     21          7           0        2.230036    0.114117    0.085515
     22          1           0        0.383097    0.829381   -0.519879
     23          6           0        2.797669    1.488103    0.144117
     24          6           0        3.225305   -0.961527   -0.120682
     25          6           0        4.152033   -1.083173    1.087462
     26          6           0        4.029583   -0.854417   -1.417720
     27          1           0        2.648369   -1.889437   -0.158019
     28          1           0        3.837770    1.378043    0.455181
     29          6           0        2.076372    2.304506    1.215985
     30          6           0        2.795868    2.253735   -1.185198
     31          1           0        3.575734   -1.120327    2.015433
     32          1           0        4.860769   -0.254300    1.150549
     33          1           0        4.733285   -2.004842    1.008228
     34          1           0        3.379672   -0.765478   -2.292014
     35          1           0        4.642984   -1.750143   -1.543523
     36          1           0        4.699802    0.009415   -1.392234
     37          1           0        2.448188    3.332303    1.221765
     38          1           0        2.234513    1.875121    2.206934
     39          1           0        0.999136    2.336747    1.023103
     40          1           0        3.392587    3.161525   -1.069100
     41          1           0        1.784594    2.558011   -1.468375
     42          1           0        3.221628    1.670428   -2.002838
     43          8           0        0.766324   -0.440058    2.475841
     44          1           0       -0.096473   -0.166126    2.122329
     45          1           0        1.376884   -0.252579    1.723717
 ---------------------------------------------------------------------

 SCF Done:  E(RM062X) =  -1455.96203085     A.U. after    1 cycles

 The electronic state is 1-A.
 Alpha  occ. eigenvalues --  -89.90163 -78.14427 -19.66302 -19.60271 -19.59451
 Alpha  occ. eigenvalues --  -14.73788 -10.59765 -10.57177 -10.55992 -10.55918
 Alpha  occ. eigenvalues --  -10.55867 -10.54376 -10.52314 -10.51408 -10.51341
 Alpha  occ. eigenvalues --  -10.51274 -10.51227  -8.26814  -6.95796  -6.18912
 Alpha  occ. eigenvalues --   -6.18712  -6.18340  -5.07624  -5.07519  -5.07372
 Alpha  occ. eigenvalues --   -1.19556  -1.11149  -1.10016  -1.03107  -0.90443
 Alpha  occ. eigenvalues --   -0.87988  -0.87268  -0.84263  -0.82582  -0.77995
 Alpha  occ. eigenvalues --   -0.76804  -0.76327  -0.72816  -0.70185  -0.67824
 Alpha  occ. eigenvalues --   -0.63870  -0.61028  -0.58229  -0.57453  -0.56314
 Alpha  occ. eigenvalues --   -0.56052  -0.55097  -0.53974  -0.52671  -0.50312
 Alpha  occ. eigenvalues --   -0.49970  -0.49324  -0.49093  -0.48578  -0.47750
 Alpha  occ. eigenvalues --   -0.47141  -0.46128  -0.45785  -0.45108  -0.44959
 Alpha  occ. eigenvalues --   -0.44555  -0.43960  -0.43688  -0.43437  -0.42211
 Alpha  occ. eigenvalues --   -0.41709  -0.41102  -0.40845  -0.40145  -0.39438
 Alpha  occ. eigenvalues --   -0.39102  -0.37900  -0.37545  -0.37199  -0.36984
 Alpha  occ. eigenvalues --   -0.34962  -0.31203  -0.27835
 Alpha virt. eigenvalues --   -0.00119   0.00800   0.00913   0.01273   0.01817
 Alpha virt. eigenvalues --    0.02206   0.02458   0.03003   0.03162   0.03659
 Alpha virt. eigenvalues --    0.03969   0.04373   0.04488   0.04967   0.05019

 Mulliken charges:
               1
     1  P   -0.556918
     2  S    0.300897
     3  O   -0.006655
     4  C   -0.357999
     5  C   -0.117431
     6  O   -0.387262
     7  C   -0.615126
     8  H    0.242800
     9  H    0.262951
    10  H    0.244432
    11  H    0.254088
    12  H    0.193514
    13  C   -0.558409
    14  H    0.184112
    15  H    0.183928
    16  H    0.185949
    17  C   -0.644642
    18  H    0.264232
    19  H    0.360973
    20  H    0.177112
    21  N   -0.204670
    22  H    0.238279
    23  C    0.203358
    24  C   -0.023637
    25  C   -0.580872
    26  C   -0.663319
    27  H    0.198086
    28  H    0.199390
    29  C   -0.624725
    30  C   -0.664885
    31  H    0.192247
    32  H    0.172650
    33  H    0.199198
    34  H    0.199161
    35  H    0.197912
    36  H    0.179578
    37  H    0.184343
    38  H    0.184120
    39  H    0.178049
    40  H    0.222979
    41  H    0.171187
    42  H    0.162651
    43  O   -0.664288
    44  H    0.373680
    45  H    0.358982
 Sum of Mulliken charges =   0.00000

 Dipole moment (field-independent basis, Debye):
    X=             -0.4127    Y=             -0.9582    Z=             -5.8022  Tot=              5.8952
 Quadrupole moment (field-independent basis, Debye-Ang):
   XX=           -103.5761   YY=           -114.1347   ZZ=           -140.4755
   XY=             -0.5087   XZ=             -6.0684   YZ=             -3.7392

  Exact polarizability: 286.718  -4.058 265.219  -5.420   1.417 268.907
 Approx polarizability: 234.585  -2.289 220.670  -1.816   3.380 227.829

                      1                      2                      3
                      A                      A                      A
 Frequencies --     24.5572                41.8509                49.4960
 Red. masses --      4.0279                 3.7042                 3.4509
 Frc consts  --      0.0014                 0.0038                 0.0050
 IR Inten    --      2.0085                 1.5222                 0.7333

                      4                      5                      6
                      A                      A                      A
 Frequencies --     65.9339                74.2819                88.0869
 Red. masses --      3.1296                 4.3048                 2.9846
 Frc consts  --      0.0080                 0.0140                 0.0136
 IR Inten    --      1.3699                 4.2172                 2.8040

                      7                      8                      9
                      A                      A                      A
 Frequencies --    105.3462               114.6045               118.7886
 Red. masses --      2.9073                 4.3708                 4.1087
 Frc consts  --      0.0190                 0.0338                 0.0342
 IR Inten    --      0.9232                 5.4556                 4.9738

                     10                     11                     12
                      A                      A                      A
 Frequencies --    145.1119               146.8181               163.8828
 Red. masses --      4.3110                 3.3969                 3.8936
 Frc consts  --      0.0535                 0.0431                 0.0616
 IR Inten    --      2.2254                 2.9796                 8.7888

                     13                     14                     15
                      A                      A                      A
 Frequencies --    181.9860               202.5880               211.5424
 Red. masses --      4.5555                 2.3624                 3.1015
 Frc consts  --      0.0889                 0.0571                 0.0818
 IR Inten    --      5.0022                 8.9174                 2.6895

                     16                     17                     18
                      A                      A                      A
 Frequencies --    227.7196               241.6897               257.9089
 Red. masses --      1.7589                 1.8351                 1.1003
 Frc consts  --      0.0537                 0.0632                 0.0431
 IR Inten    --      2.7485                 3.9301                 0.2131

                     19                     20                     21
                      A                      A                      A
 Frequencies --    263.5597               272.7794               278.2130
 Red. masses --      1.7012                 1.0753                 1.8153
 Frc consts  --      0.0696                 0.0471                 0.0828
 IR Inten    --      0.4986                 0.1634                 0.4630

                     22                     23                     24
                      A                      A                      A
 Frequencies --    288.4545               295.9262               301.3738
 Red. masses --      1.8371                 1.3028                 2.7172
 Frc consts  --      0.0901                 0.0672                 0.1454
 IR Inten    --      3.5116                 1.9821                11.8016

                     25                     26                     27
                      A                      A                      A
 Frequencies --    315.9649               318.0079               340.4507
 Red. masses --      2.5974                 1.2230                 2.8054
 Frc consts  --      0.1528                 0.0729                 0.1916
 IR Inten    --     12.6724                 3.8237                 2.6255

                     28                     29                     30
                      A                      A                      A
 Frequencies --    353.9989               372.3398               400.0740
 Red. masses --      2.7141                 4.9433                 2.6709
 Frc consts  --      0.2004                 0.4038                 0.2519
 IR Inten    --      5.2367                34.2233                 6.5891

                     31                     32                     33
                      A                      A                      A
 Frequencies --    422.6711               430.0709               477.7884
 Red. masses --      3.0849                 2.9993                 4.2289
 Frc consts  --      0.3247                 0.3268                 0.5688
 IR Inten    --     12.2949                10.8285                37.8785

                     34                     35                     36
                      A                      A                      A
 Frequencies --    514.6597               521.0490               526.3681
 Red. masses --      2.0788                 1.2321                 8.5876
 Frc consts  --      0.3244                 0.1971                 1.4018
 IR Inten    --     32.2746               159.8531               234.9307

                     37                     38                     39
                      A                      A                      A
 Frequencies --    552.8293               558.5825               581.3713
 Red. masses --      1.7128                 1.4029                 2.2570
 Frc consts  --      0.3084                 0.2579                 0.4495
 IR Inten    --     60.4756                23.0286                37.0222

                     40                     41                     42
                      A                      A                      A
 Frequencies --    720.2876               738.8816               762.3520
 Red. masses --      3.2526                 3.4654                 2.3518
 Frc consts  --      0.9942                 1.1147                 0.8053
 IR Inten    --     31.4986               183.8821                34.3048

                     43                     44                     45
                      A                      A                      A
 Frequencies --    803.1506               806.0483               807.7102
 Red. masses --      1.8539                 1.1065                 2.6662
 Frc consts  --      0.7046                 0.4236                 1.0248
 IR Inten    --     22.6878               192.9459                83.9475

                     46                     47                     48
                      A                      A                      A
 Frequencies --    820.9560               877.0678               916.4679
 Red. masses --      1.2375                 2.1745                 1.7029
 Frc consts  --      0.4914                 0.9855                 0.8427
 IR Inten    --      0.9720                 2.5150                31.0353

                     49                     50                     51
                      A                      A                      A
 Frequencies --    921.2318               934.2566               936.2032
 Red. masses --      1.3499                 1.1791                 1.3624
 Frc consts  --      0.6750                 0.6064                 0.7036
 IR Inten    --    105.8433                 0.8968                18.7443

                     52                     53                     54
                      A                      A                      A
 Frequencies --    936.9048               952.5537               956.2847
 Red. masses --      1.4070                 1.3782                 1.4639
 Frc consts  --      0.7277                 0.7368                 0.7887
 IR Inten    --    113.6304                 0.2922                 1.5459

                     55                     56                     57
                      A                      A                      A
 Frequencies --    959.8539              1001.3954              1053.7167
 Red. masses --      2.6170                 2.0631                 1.9936
 Frc consts  --      1.4205                 1.2190                 1.3042
 IR Inten    --    216.3618                15.0547                25.9601

                     58                     59                     60
                      A                      A                      A
 Frequencies --   1063.1447              1072.4444              1103.7043
 Red. masses --      3.7083                 1.7716                 2.5149
 Frc consts  --      2.4695                 1.2005                 1.8050
 IR Inten    --    427.1221                21.3167                14.6668

                     61                     62                     63
                      A                      A                      A
 Frequencies --   1122.0386              1146.9296              1156.9315
 Red. masses --      2.0998                 2.1043                 1.9934
 Frc consts  --      1.5576                 1.6309                 1.5721
 IR Inten    --     20.3332                 8.3873                44.7527

                     64                     65                     66
                      A                      A                      A
 Frequencies --   1166.7603              1173.6085              1189.0477
 Red. masses --      2.1759                 7.3772                 2.0568
 Frc consts  --      1.7452                 5.9867                 1.7133
 IR Inten    --     17.5043               423.8273                24.2412

                     67                     68                     69
                      A                      A                      A
 Frequencies --   1194.5132              1202.0591              1234.5784
 Red. masses --      1.8092                 1.9499                 2.0009
 Frc consts  --      1.5210                 1.6600                 1.7969
 IR Inten    --    122.7444                99.0733                87.8874

                     70                     71                     72
                      A                      A                      A
 Frequencies --   1248.1667              1306.7873              1336.2979
 Red. masses --      1.6299                 1.3172                 1.0945
 Frc consts  --      1.4961                 1.3253                 1.1516
 IR Inten    --     26.4243                12.4150                23.4938

                     73                     74                     75
                      A                      A                      A
 Frequencies --   1340.6263              1342.6763              1344.2211
 Red. masses --      1.3547                 1.1539                 1.2603
 Frc consts  --      1.4346                 1.2257                 1.3417
 IR Inten    --      5.1985                 6.5413                54.0701

                     76                     77                     78
                      A                      A                      A
 Frequencies --   1352.8433              1388.6917              1392.3080
 Red. masses --      1.2779                 1.3056                 1.2997
 Frc consts  --      1.3780                 1.4835                 1.4845
 IR Inten    --     10.3669                 2.7774                53.0171

                     79                     80                     81
                      A                      A                      A
 Frequencies --   1396.0200              1398.8517              1405.4394
 Red. masses --      1.2246                 1.3120                 1.3044
 Frc consts  --      1.4061                 1.5127                 1.5181
 IR Inten    --      5.6857                 7.6800                 8.7112

                     82                     83                     84
                      A                      A                      A
 Frequencies --   1410.6337              1423.8403              1430.6709
 Red. masses --      1.2124                 1.3201                 1.3089
 Frc consts  --      1.4214                 1.5768                 1.5785
 IR Inten    --      7.9694                24.9196                24.1261

                     85                     86                     87
                      A                      A                      A
 Frequencies --   1431.7681              1433.0806              1438.4452
 Red. masses --      1.2690                 1.0493                 1.0452
 Frc consts  --      1.5327                 1.2697                 1.2743
 IR Inten    --     25.4444                17.5202                11.1775

                     88                     89                     90
                      A                      A                      A
 Frequencies --   1465.1468              1466.2761              1470.6997
 Red. masses --      1.0430                 1.0855                 1.0378
 Frc consts  --      1.3192                 1.3750                 1.3225
 IR Inten    --      0.1936                 4.0717                12.9293

                     91                     92                     93
                      A                      A                      A
 Frequencies --   1474.5718              1476.6670              1478.2177
 Red. masses --      1.0518                 1.0588                 1.0481
 Frc consts  --      1.3474                 1.3603                 1.3494
 IR Inten    --      6.1278                 2.6612                 1.9393

                     94                     95                     96
                      A                      A                      A
 Frequencies --   1481.2359              1483.8464              1488.3882
 Red. masses --      1.0539                 1.0617                 1.0499
 Frc consts  --      1.3624                 1.3773                 1.3703
 IR Inten    --     19.9826                 5.3948                 5.0765

                     97                     98                     99
                      A                      A                      A
 Frequencies --   1494.9087              1496.0689              1504.6602
 Red. masses --      1.0733                 1.0671                 1.0753
 Frc consts  --      1.4132                 1.4073                 1.4343
 IR Inten    --      2.9989                 9.9041                12.3757

                    100                    101                    102
                      A                      A                      A
 Frequencies --   1517.7006              1662.6042              3027.6694
 Red. masses --      1.0817                 1.0738                 1.0688
 Frc consts  --      1.4681                 1.7488                 5.7724
 IR Inten    --     13.4710               197.4986                72.7716

                    103                    104                    105
                      A                      A                      A
 Frequencies --   3052.4611              3054.2473              3060.8780
 Red. masses --      1.0376                 1.0360                 1.0366
 Frc consts  --      5.6959                 5.6941                 5.7223
 IR Inten    --     22.9594                33.0111                21.7788

                    106                    107                    108
                      A                      A                      A
 Frequencies --   3064.3049              3071.1555              3075.4381
 Red. masses --      1.0379                 1.0355                 1.0327
 Frc consts  --      5.7419                 5.7545                 5.7551
 IR Inten    --     34.1536                11.5810                 3.5304

                    109                    110                    111
                      A                      A                      A
 Frequencies --   3085.8682              3090.1776              3106.0683
 Red. masses --      1.0837                 1.0651                 1.0824
 Frc consts  --      6.0803                 5.9922                 6.1528
 IR Inten    --     14.0215                21.8989                 2.6465

                    112                    113                    114
                      A                      A                      A
 Frequencies --   3107.2629              3118.7887              3123.6647
 Red. masses --      1.0665                 1.0914                 1.1008
 Frc consts  --      6.0670                 6.2548                 6.3282
 IR Inten    --      8.3753                 8.2585                11.8369

                    115                    116                    117
                      A                      A                      A
 Frequencies --   3128.2724              3131.7475              3133.3491
 Red. masses --      1.1024                 1.1028                 1.1011
 Frc consts  --      6.3560                 6.3729                 6.3695
 IR Inten    --     30.6405                38.2447                37.4082

                    118                    119                    120
                      A                      A                      A
 Frequencies --   3135.2482              3139.8329              3142.0495
 Red. masses --      1.1024                 1.1010                 1.1006
 Frc consts  --      6.3846                 6.3949                 6.4020
 IR Inten    --     50.9325               112.5731                47.8662

                    121                    122                    123
                      A                      A                      A
 Frequencies --   3146.2508              3150.3950              3154.1890
 Red. masses --      1.1029                 1.1027                 1.1011
 Frc consts  --      6.4323                 6.4483                 6.4545
 IR Inten    --      2.9353                20.9425                24.0096

                    124                    125                    126
                      A                      A                      A
 Frequencies --   3164.9266              3167.5461              3168.4348
 Red. masses --      1.1071                 1.1055                 1.1041
 Frc consts  --      6.5336                 6.5351                 6.5307
 IR Inten    --      3.0540                39.9384                 1.1718

                    127                    128                    129
                      A                      A                      A
 Frequencies --   3182.2705              3332.2758              3705.9670
 Red. masses --      1.1056                 1.0685                 1.0657
 Frc consts  --      6.5964                 6.9904                 8.6238
 IR Inten    --      1.1975              1506.7632               629.0841

 - Thermochemistry -
 -------------------
 Temperature   298.150 Kelvin.  Pressure   1.00000 Atm.
 Atom     1 has atomic number 15 and mass  30.97376

 Molecular mass:   285.15275 amu.
 Principal axes and moments of inertia in atomic units:
                           1         2         3
     Eigenvalues --  3086.438498972.790029486.10722
           X            0.99994  -0.00922  -0.00606
           Y            0.00884   0.99812  -0.06072
           Z            0.00661   0.06066   0.99814
 This molecule is an asymmetric top.
 Rotational symmetry number  1.
 Warning -- assumption of classical behavior for rotation
           may cause significant error
 Rotational temperatures (Kelvin)      0.02806     0.00965     0.00913
 Rotational constants (GHZ):           0.58473     0.20113     0.19025
 Zero-point vibrational energy    1043041.4 (Joules/Mol)
                                  249.29288 (Kcal/Mol)
 Warning -- explicit consideration of  39 degrees of freedom as
           vibrations may cause significant error
 Vibrational temperatures:     35.33    60.21    71.21    94.86   106.87
          (Kelvin)            126.74   151.57   164.89   170.91   208.78
                              211.24   235.79   261.84   291.48   304.36
                              327.64   347.74   371.07   379.20   392.47
                              400.29   415.02   425.77   433.61   454.60
                              457.54   489.83   509.32   535.71   575.62
                              608.13   618.78   687.43   740.48   749.67
                              757.33   795.40   803.67   836.46  1036.33
                             1063.08  1096.85  1155.55  1159.72  1162.11
                             1181.17  1261.90  1318.59  1325.45  1344.19
                             1346.99  1348.00  1370.51  1375.88  1381.01
                             1440.78  1516.06  1529.63  1543.01  1587.98
                             1614.36  1650.17  1664.56  1678.71  1688.56
                             1710.77  1718.64  1729.49  1776.28  1795.83
                             1880.17  1922.63  1928.86  1931.81  1934.03
                             1946.44  1998.02  2003.22  2008.56  2012.63
                             2022.11  2029.58  2048.59  2058.41  2059.99
                             2061.88  2069.60  2108.02  2109.64  2116.01
                             2121.58  2124.59  2126.82  2131.17  2134.92
                             2141.46  2150.84  2152.51  2164.87  2183.63
                             2392.11  4356.14  4391.81  4394.38  4403.92
                             4408.85  4418.70  4424.86  4439.87  4446.07
                             4468.93  4470.65  4487.24  4494.25  4500.88
                             4505.88  4508.18  4510.92  4517.51  4520.70
                             4526.75  4532.71  4538.17  4553.62  4557.39
                             4558.67  4578.57  4794.40  5332.05

 Zero-point correction=                           0.397273 (Hartree/Particle)
 Thermal correction to Energy=                    0.420627
 Thermal correction to Enthalpy=                  0.421571
 Thermal correction to Gibbs Free Energy=         0.345351
 Sum of electronic and zero-point Energies=          -1455.564757
 Sum of electronic and thermal Energies=             -1455.541404
 Sum of electronic and thermal Enthalpies=           -1455.540460
 Sum of electronic and thermal Free Energies=        -1455.616680

                     E (Thermal)             CV                S
                      KCal/Mol        Cal/Mol-Kelvin    Cal/Mol-Kelvin
 Total                  263.947             86.560            160.419
 Electronic               0.000              0.000              0.000
 Translational            0.889              2.981             42.842
 Rotational               0.889              2.981             33.929
 Vibrational            262.170             80.598             83.648
 Vibration     1          0.593              1.985              6.227
 Vibration     2          0.594              1.980              5.169
 Vibration     3          0.595              1.978              4.837
 Vibration     4          0.597              1.971              4.271
 Vibration     5          0.599              1.966              4.037
 Vibration     6          0.601              1.958              3.702
 Vibration     7          0.605              1.945              3.353
 Vibration     8          0.608              1.937              3.189
 Vibration     9          0.609              1.934              3.120
 Vibration    10          0.617              1.908              2.735
 Vibration    11          0.617              1.906              2.713
 Vibration    12          0.623              1.887              2.505
 Vibration    13          0.630              1.864              2.308
 Vibration    14          0.639              1.836              2.109
 Vibration    15          0.643              1.823              2.030
 Vibration    16          0.651              1.799              1.897
 Vibration    17          0.658              1.776              1.790
 Vibration    18          0.667              1.749              1.676
 Vibration    19          0.670              1.740              1.638
 Vibration    20          0.676              1.724              1.579
 Vibration    21          0.679              1.714              1.545
 Vibration    22          0.685              1.695              1.483
 Vibration    23          0.690              1.681              1.440
 Vibration    24          0.693              1.671              1.409
 Vibration    25          0.703              1.643              1.331
 Vibration    26          0.704              1.639              1.320
 Vibration    27          0.720              1.595              1.210
 Vibration    28          0.730              1.567              1.148
 Vibration    29          0.744              1.529              1.070
 Vibration    30          0.766              1.470              0.962
 Vibration    31          0.785              1.421              0.883
 Vibration    32          0.791              1.405              0.858
 Vibration    33          0.834              1.299              0.716
 Vibration    34          0.870              1.218              0.622
 Vibration    35          0.876              1.203              0.608
 Vibration    36          0.881              1.192              0.595
 Vibration    37          0.908              1.133              0.538
 Vibration    38          0.914              1.121              0.527
 Vibration    39          0.938              1.072              0.483

 Optimization completed.
    -- Stationary point found.
 Normal termination of Gaussian 09 at Mon Jun 24 14:32:01 2019.
