 Gaussian 09, Revision D.01,
 Gaussian 09:  ES64L-G09RevD.01 24-Apr-2013

 ----------------------------------------------------------------------
 #P M062X/6-311++G(d,p) Opt(TS,NoEigen,RCFC,Tight) Freq SCRF(SMD) SCF(C
 onver=9) Int(Grid=UltraFine) Geom(Check) Guess(Read)
 ----------------------------------------------------------------------

 ----------
 TS1b_sp TS
 ----------
 Structure from the checkpoint file:  "TS1b_sp.chk"
 Charge =  0 Multiplicity = 1

 SCF Done:  E(RM062X) =  -1455.89324821     A.U. after    1 cycles
 SCF Done:  E(RM062X) =  -1455.89324827     A.U. after    8 cycles
 SCF Done:  E(RM062X) =  -1455.89324826     A.U. after    7 cycles
 SCF Done:  E(RM062X) =  -1455.89324826     A.U. after    6 cycles
 Optimization completed.
    -- Stationary point found.
 Normal termination of Gaussian 09 at Tue Nov  5 10:57:26 2019.

 ----------------------------------------------------------------------
 #P Geom=AllCheck Guess=TCheck SCRF=Check GenChk RM062X/6-311++G(d,p) F
 req
 ----------------------------------------------------------------------

 Structure from the checkpoint file:  "TS1b_sp.chk"
 ----------
 TS1b_sp TS
 ----------
 Charge =  0 Multiplicity = 1

                         Standard orientation:
 ---------------------------------------------------------------------
 Center     Atomic      Atomic             Coordinates (Angstroms)
 Number     Number       Type             X           Y           Z
 ---------------------------------------------------------------------
      1         15           0        1.965632   -0.483982    0.140947
      2         16           0        1.133886    0.481910    1.854283
      3          8           0        1.521322    0.416242   -1.105395
      4          6           0       -0.478435   -0.335237    2.173654
      5          6           0        1.346795    1.859309   -1.064679
      6          8           0        1.212130   -1.872035    0.262898
      7          6           0        3.712089   -0.341345    0.557312
      8          1           0        4.042134   -1.319965    0.910749
      9          1           0        3.855171    0.397019    1.346219
     10          1           0        4.268151   -0.070523   -0.337471
     11          1           0        0.592743    2.098330   -0.315683
     12          1           0        0.956121    2.095215   -2.052823
     13          6           0        2.651709    2.576528   -0.806392
     14          1           0        2.492955    3.649663   -0.931941
     15          1           0        3.417208    2.254162   -1.515026
     16          1           0        3.015421    2.410455    0.210699
     17          6           0       -1.705246    0.245156    1.482192
     18          1           0       -0.350922   -1.401948    2.006666
     19          1           0       -0.603484   -0.191083    3.248651
     20          1           0       -2.572986   -0.172320    2.020365
     21          7           0       -1.797453    0.022140    0.044407
     22          1           0       -1.717348    1.322852    1.663098
     23          6           0       -2.797136    0.912497   -0.596268
     24          6           0       -1.946883   -1.401278   -0.323802
     25          6           0       -1.472673   -1.641323   -1.756313
     26          6           0       -3.345092   -1.995169   -0.114880
     27          1           0       -1.264167   -1.950863    0.324426
     28          1           0       -3.101932    0.414297   -1.518843
     29          6           0       -2.162150    2.244337   -0.986825
     30          6           0       -4.069946    1.174280    0.224199
     31          1           0       -0.459909   -1.257425   -1.899061
     32          1           0       -2.129711   -1.164048   -2.488658
     33          1           0       -1.467850   -2.713451   -1.970328
     34          1           0       -3.700029   -1.851639    0.908554
     35          1           0       -3.312463   -3.070797   -0.307185
     36          1           0       -4.074160   -1.555920   -0.801637
     37          1           0       -2.915593    2.912679   -1.412918
     38          1           0       -1.374757    2.099445   -1.727995
     39          1           0       -1.729710    2.742509   -0.113214
     40          1           0       -4.805015    1.675712   -0.410294
     41          1           0       -3.866400    1.832328    1.073410
     42          1           0       -4.522487    0.257690    0.603407
     43          8           0        2.744629   -1.801066   -1.466367
     44          1           0        2.379463   -1.479540   -2.297138
     45          1           0        1.682242   -2.300301   -0.567889
 ---------------------------------------------------------------------

 SCF Done:  E(RM062X) =  -1455.89324826     A.U. after    1 cycles

 The electronic state is 1-A.
 Alpha  occ. eigenvalues --  -89.88964 -78.17316 -19.66178 -19.64356 -19.56868
 Alpha  occ. eigenvalues --  -14.72659 -10.59516 -10.56443 -10.55507 -10.55498
 Alpha  occ. eigenvalues --  -10.55279 -10.54708 -10.52572 -10.51064 -10.51053
 Alpha  occ. eigenvalues --  -10.51042 -10.51033  -8.25628  -6.98219  -6.17747
 Alpha  occ. eigenvalues --   -6.17502  -6.17176  -5.10041  -5.10015  -5.09794
 Alpha  occ. eigenvalues --   -1.20355  -1.16225  -1.04022  -1.02342  -0.89516
 Alpha  occ. eigenvalues --   -0.87513  -0.86829  -0.84855  -0.82736  -0.77736
 Alpha  occ. eigenvalues --   -0.76719  -0.75985  -0.73835  -0.69545  -0.67652
 Alpha  occ. eigenvalues --   -0.64427  -0.61223  -0.60047  -0.57933  -0.56709
 Alpha  occ. eigenvalues --   -0.55449  -0.54538  -0.53765  -0.52649  -0.51009
 Alpha  occ. eigenvalues --   -0.50063  -0.49677  -0.49289  -0.48501  -0.48092
 Alpha  occ. eigenvalues --   -0.47055  -0.46499  -0.45978  -0.45590  -0.44330
 Alpha  occ. eigenvalues --   -0.44182  -0.43396  -0.43200  -0.43012  -0.42416
 Alpha  occ. eigenvalues --   -0.41005  -0.40595  -0.40242  -0.39786  -0.38620
 Alpha  occ. eigenvalues --   -0.38321  -0.36906  -0.36544  -0.35995  -0.34636
 Alpha  occ. eigenvalues --   -0.34089  -0.30356  -0.26593
 Alpha virt. eigenvalues --    0.00015   0.00872   0.00935   0.01080   0.02230
 Alpha virt. eigenvalues --    0.02488   0.02769   0.03027   0.03156   0.04021
 Alpha virt. eigenvalues --    0.04311   0.04593   0.04979   0.05097   0.05419

 Mulliken charges:
               1
     1  P   -0.554801
     2  S    0.196337
     3  O    0.061150
     4  C   -0.646088
     5  C   -0.199100
     6  O   -0.206047
     7  C   -0.629937
     8  H    0.270921
     9  H    0.207741
    10  H    0.248535
    11  H    0.092191
    12  H    0.255715
    13  C   -0.522561
    14  H    0.235143
    15  H    0.197409
    16  H    0.201787
    17  C   -0.152992
    18  H    0.250780
    19  H    0.319332
    20  H    0.173196
    21  N    0.177388
    22  H    0.168433
    23  C   -0.186845
    24  C   -0.225173
    25  C   -0.549080
    26  C   -0.629687
    27  H    0.180568
    28  H    0.175866
    29  C   -0.335152
    30  C   -0.625673
    31  H    0.231840
    32  H    0.166733
    33  H    0.188961
    34  H    0.189562
    35  H    0.194254
    36  H    0.175676
    37  H    0.205939
    38  H    0.137888
    39  H    0.167075
    40  H    0.214922
    41  H    0.166467
    42  H    0.146347
    43  O   -0.832854
    44  H    0.325124
    45  H    0.372708
 Sum of Mulliken charges =   0.00000

 Dipole moment (field-independent basis, Debye):
    X=             -3.0629    Y=              5.1295    Z=              1.9758  Tot=              6.2926
 Quadrupole moment (field-independent basis, Debye-Ang):
   XX=           -120.6648   YY=           -126.0385   ZZ=           -122.4680
   XY=             13.8953   XZ=              4.7358   YZ=             -8.0136

  Exact polarizability: 289.542  -1.473 271.002 -15.545   4.997 278.039
 Approx polarizability: 234.191  -0.191 227.271  -9.724   4.495 234.263

 ******    1 imaginary frequencies (negative Signs) ******

                      1                      2                      3
                      A                      A                      A
 Frequencies --   -514.2288                36.1705                54.3819
 Red. masses --      2.2234                 3.8128                 3.7570
 Frc consts  --      0.3464                 0.0029                 0.0065
 IR Inten    --    135.7551                 1.6543                 0.9453

                      4                      5                      6
                      A                      A                      A
 Frequencies --     64.0694                82.5257                93.8604
 Red. masses --      3.9665                 4.3840                 3.0547
 Frc consts  --      0.0096                 0.0176                 0.0159
 IR Inten    --      2.2662                 1.0317                 1.0339

                      7                      8                      9
                      A                      A                      A
 Frequencies --    115.2859               115.6112               129.5609
 Red. masses --      2.8304                 2.8070                 3.2248
 Frc consts  --      0.0222                 0.0221                 0.0319
 IR Inten    --      0.8287                 2.5987                 0.9741

                     10                     11                     12
                      A                      A                      A
 Frequencies --    134.3134               178.3404               187.5248
 Red. masses --      4.4282                 2.1588                 1.9436
 Frc consts  --      0.0471                 0.0405                 0.0403
 IR Inten    --      3.5910                 2.9454                 2.3747

                     13                     14                     15
                      A                      A                      A
 Frequencies --    197.6313               220.4831               229.8229
 Red. masses --      3.8377                 3.4806                 1.9252
 Frc consts  --      0.0883                 0.0997                 0.0599
 IR Inten    --     10.9593                 1.8780                 9.9117

                     16                     17                     18
                      A                      A                      A
 Frequencies --    232.0568               245.3037               257.7208
 Red. masses --      1.2354                 1.6832                 1.6225
 Frc consts  --      0.0392                 0.0597                 0.0635
 IR Inten    --      7.1983                 3.4142                 2.4395

                     19                     20                     21
                      A                      A                      A
 Frequencies --    274.0075               283.2557               297.3509
 Red. masses --      1.9542                 1.4201                 3.0676
 Frc consts  --      0.0864                 0.0671                 0.1598
 IR Inten    --     12.1416                12.0756               156.3595

                     22                     23                     24
                      A                      A                      A
 Frequencies --    300.4412               305.5583               320.0581
 Red. masses --      2.1569                 1.8553                 1.4902
 Frc consts  --      0.1147                 0.1021                 0.0899
 IR Inten    --     86.1007                77.9094                10.9518

                     25                     26                     27
                      A                      A                      A
 Frequencies --    333.1545               337.7755               348.7803
 Red. masses --      1.4174                 2.6538                 3.6273
 Frc consts  --      0.0927                 0.1784                 0.2600
 IR Inten    --     11.2711                20.8234               327.9740

                     28                     29                     30
                      A                      A                      A
 Frequencies --    355.2592               386.2777               394.8226
 Red. masses --      1.9361                 3.5204                 2.8269
 Frc consts  --      0.1440                 0.3095                 0.2596
 IR Inten    --     17.4390                79.7518                38.0408

                     31                     32                     33
                      A                      A                      A
 Frequencies --    414.1498               437.5162               452.3349
 Red. masses --      2.0464                 5.6161                 1.2424
 Frc consts  --      0.2068                 0.6334                 0.1498
 IR Inten    --      2.5435               333.7720               121.9736

                     34                     35                     36
                      A                      A                      A
 Frequencies --    468.2913               478.7905               512.2625
 Red. masses --      2.4511                 3.0677                 2.8327
 Frc consts  --      0.3167                 0.4143                 0.4380
 IR Inten    --      8.9587                21.1597                 0.2865

                     37                     38                     39
                      A                      A                      A
 Frequencies --    560.1889               582.0705               662.3188
 Red. masses --      2.4098                 2.4996                 2.5172
 Frc consts  --      0.4456                 0.4990                 0.6506
 IR Inten    --     10.8952                10.2932               311.7360

                     40                     41                     42
                      A                      A                      A
 Frequencies --    672.6066               692.1429               713.8397
 Red. masses --      4.7719                 1.5376                 2.5712
 Frc consts  --      1.2719                 0.4340                 0.7719
 IR Inten    --     40.4316                29.1180                10.5533

                     43                     44                     45
                      A                      A                      A
 Frequencies --    795.5126               817.9277               851.3003
 Red. masses --      3.0836                 1.1950                 2.1713
 Frc consts  --      1.1498                 0.4710                 0.9271
 IR Inten    --     93.2010                 8.7486                 3.8875

                     46                     47                     48
                      A                      A                      A
 Frequencies --    860.8763               879.6802               907.9505
 Red. masses --      2.5247                 2.1782                 1.4380
 Frc consts  --      1.1024                 0.9931                 0.6984
 IR Inten    --    277.7889                 5.7912                29.9217

                     49                     50                     51
                      A                      A                      A
 Frequencies --    920.1211               934.3082               937.4891
 Red. masses --      1.4149                 1.3334                 1.3465
 Frc consts  --      0.7058                 0.6858                 0.6973
 IR Inten    --     11.2835                 1.3386                 2.2974

                     52                     53                     54
                      A                      A                      A
 Frequencies --    943.0371               950.6373               954.4268
 Red. masses --      2.0561                 1.3985                 1.4804
 Frc consts  --      1.0774                 0.7446                 0.7945
 IR Inten    --     77.5388                 0.2359                 7.4023

                     55                     56                     57
                      A                      A                      A
 Frequencies --    968.1842               972.6382               995.9144
 Red. masses --      1.6261                 1.7185                 2.0973
 Frc consts  --      0.8981                 0.9579                 1.2256
 IR Inten    --    208.1485               117.7525                16.9326

                     58                     59                     60
                      A                      A                      A
 Frequencies --   1043.4223              1065.2704              1068.0647
 Red. masses --      2.2500                 1.3792                 1.6016
 Frc consts  --      1.4433                 0.9221                 1.0765
 IR Inten    --    820.2832               452.0526               153.5811

                     61                     62                     63
                      A                      A                      A
 Frequencies --   1075.5673              1116.2042              1118.1315
 Red. masses --      4.2584                 2.0900                 2.2028
 Frc consts  --      2.9025                 1.5342                 1.6226
 IR Inten    --    364.9203                18.8866                17.1229

                     64                     65                     66
                      A                      A                      A
 Frequencies --   1142.1243              1150.3115              1164.0142
 Red. masses --      2.1078                 1.7798                 2.0391
 Frc consts  --      1.6200                 1.3875                 1.6278
 IR Inten    --     11.1277                31.5349                46.5090

                     67                     68                     69
                      A                      A                      A
 Frequencies --   1180.6915              1186.4362              1200.6798
 Red. masses --      1.5912                 2.0222                 1.9152
 Frc consts  --      1.3069                 1.6771                 1.6267
 IR Inten    --     19.5822                30.9662                95.5690

                     70                     71                     72
                      A                      A                      A
 Frequencies --   1239.1302              1266.5586              1302.0725
 Red. masses --      2.5924                 1.5901                 1.2370
 Frc consts  --      2.3452                 1.5029                 1.2357
 IR Inten    --     77.5682                43.9993                 6.5683

                     73                     74                     75
                      A                      A                      A
 Frequencies --   1320.0517              1332.1664              1341.4156
 Red. masses --      1.0880                 1.2087                 1.3448
 Frc consts  --      1.1170                 1.2638                 1.4257
 IR Inten    --     10.2857                25.2830                 1.3444

                     76                     77                     78
                      A                      A                      A
 Frequencies --   1345.9355              1349.2826              1391.5778
 Red. masses --      1.2953                 1.2093                 1.2569
 Frc consts  --      1.3825                 1.2971                 1.4340
 IR Inten    --     17.5276                46.1046                 5.9786

                     79                     80                     81
                      A                      A                      A
 Frequencies --   1391.8125              1395.0408              1398.9203
 Red. masses --      1.2551                 1.3000                 1.2691
 Frc consts  --      1.4325                 1.4906                 1.4632
 IR Inten    --      3.8778                53.9215                 6.5256

                     82                     83                     84
                      A                      A                      A
 Frequencies --   1404.2867              1409.4467              1417.6475
 Red. masses --      1.2937                 1.2486                 1.3225
 Frc consts  --      1.5031                 1.4614                 1.5660
 IR Inten    --      9.4200                 6.4435                23.6673

                     85                     86                     87
                      A                      A                      A
 Frequencies --   1427.4297              1429.0567              1430.6588
 Red. masses --      1.0472                 1.2993                 1.0679
 Frc consts  --      1.2571                 1.5634                 1.2878
 IR Inten    --     11.7687                17.5197                 7.7807

                     88                     89                     90
                      A                      A                      A
 Frequencies --   1434.0017              1465.6632              1469.2677
 Red. masses --      1.2683                 1.0959                 1.0494
 Frc consts  --      1.5367                 1.3870                 1.3347
 IR Inten    --     49.9797                27.9199                 0.5342

                     91                     92                     93
                      A                      A                      A
 Frequencies --   1471.5485              1474.0012              1477.9344
 Red. masses --      1.0513                 1.0439                 1.0653
 Frc consts  --      1.3413                 1.3364                 1.3710
 IR Inten    --      1.3581                17.4790                 4.3654

                     94                     95                     96
                      A                      A                      A
 Frequencies --   1478.9271              1480.5201              1486.9845
 Red. masses --      1.0524                 1.0635                 1.0530
 Frc consts  --      1.3563                 1.3735                 1.3718
 IR Inten    --      1.3801                10.4090                16.2475

                     97                     98                     99
                      A                      A                      A
 Frequencies --   1488.7899              1492.3139              1494.6531
 Red. masses --      1.0774                 1.0509                 1.0740
 Frc consts  --      1.4070                 1.3789                 1.4137
 IR Inten    --      3.5566                 3.8701                 9.9296

                    100                    101                    102
                      A                      A                      A
 Frequencies --   1499.0988              1507.5461              2509.1940
 Red. masses --      1.0729                 1.0760                 1.0596
 Frc consts  --      1.4205                 1.4408                 3.9305
 IR Inten    --     23.6739                13.1839              1268.4660

                    103                    104                    105
                      A                      A                      A
 Frequencies --   2976.9249              3051.3487              3053.6216
 Red. masses --      1.0710                 1.0378                 1.0356
 Frc consts  --      5.5923                 5.6933                 5.6892
 IR Inten    --     98.8464                26.3534                29.5262

                    106                    107                    108
                      A                      A                      A
 Frequencies --   3056.6562              3063.5490              3067.4317
 Red. masses --      1.0370                 1.0390                 1.0360
 Frc consts  --      5.7087                 5.7453                 5.7434
 IR Inten    --     23.1695                30.4942                 9.3913

                    109                    110                    111
                      A                      A                      A
 Frequencies --   3084.4777              3097.5592              3101.0576
 Red. masses --      1.0332                 1.0860                 1.0878
 Frc consts  --      5.7915                 6.1391                 6.1635
 IR Inten    --      3.5717                21.6876                14.1276

                    112                    113                    114
                      A                      A                      A
 Frequencies --   3108.3769              3116.0143              3117.8096
 Red. masses --      1.0696                 1.0905                 1.0689
 Frc consts  --      6.0889                 6.2387                 6.1219
 IR Inten    --      9.7047                 6.5104                36.4848

                    115                    116                    117
                      A                      A                      A
 Frequencies --   3119.0314              3123.0753              3129.7991
 Red. masses --      1.0911                 1.1021                 1.1000
 Frc consts  --      6.2542                 6.3333                 6.3483
 IR Inten    --      4.7091                 0.6840                89.6190

                    118                    119                    120
                      A                      A                      A
 Frequencies --   3130.9699              3135.6902              3139.7713
 Red. masses --      1.1015                 1.1011                 1.0964
 Frc consts  --      6.3618                 6.3788                 6.3683
 IR Inten    --     40.4912                38.5995               101.6560

                    121                    122                    123
                      A                      A                      A
 Frequencies --   3140.9448              3145.5990              3149.3475
 Red. masses --      1.1027                 1.1009                 1.1017
 Frc consts  --      6.4096                 6.4181                 6.4379
 IR Inten    --     17.4580                45.6602                17.3367

                    124                    125                    126
                      A                      A                      A
 Frequencies --   3158.3144              3173.7161              3179.2184
 Red. masses --      1.0999                 1.1035                 1.1093
 Frc consts  --      6.4643                 6.5488                 6.6061
 IR Inten    --     25.5572                 0.6779                19.5631

                    127                    128                    129
                      A                      A                      A
 Frequencies --   3181.2335              3201.0127              3882.2548
 Red. masses --      1.0971                 1.1055                 1.0666
 Frc consts  --      6.5418                 6.6739                 9.4713
 IR Inten    --      4.9402                 0.9340                65.1972

 - Thermochemistry -
 -------------------
 Temperature   298.150 Kelvin.  Pressure   1.00000 Atm.
 Atom     1 has atomic number 15 and mass  30.97376

 Molecular mass:   285.15275 amu.
 Principal axes and moments of inertia in atomic units:
                           1         2         3
     Eigenvalues --  3336.287396676.093377222.87765
           X            0.99988   0.01503  -0.00272
           Y           -0.01512   0.99923  -0.03633
           Z            0.00217   0.03636   0.99934
 This molecule is an asymmetric top.
 Rotational symmetry number  1.
 Warning -- assumption of classical behavior for rotation
           may cause significant error
 Rotational temperatures (Kelvin)      0.02596     0.01297     0.01199
 Rotational constants (GHZ):           0.54094     0.27033     0.24986
    1 imaginary frequencies ignored.
 Zero-point vibrational energy    1035168.0 (Joules/Mol)
                                  247.41109 (Kcal/Mol)
 Warning -- explicit consideration of  37 degrees of freedom as
           vibrations may cause significant error
 Vibrational temperatures:     52.04    78.24    92.18   118.74   135.04
          (Kelvin)            165.87   166.34   186.41   193.25   256.59
                              269.81   284.35   317.23   330.66   333.88
                              352.94   370.80   394.24   407.54   427.82
                              432.27   439.63   460.49   479.33   485.98
                              501.82   511.14   555.77   568.06   595.87
                              629.49   650.81   673.77   688.87   737.03
                              805.99   837.47   952.93   967.73   995.84
                             1027.05  1144.56  1176.81  1224.83  1238.61
                             1265.66  1306.34  1323.85  1344.26  1348.84
                             1356.82  1367.75  1373.21  1393.00  1399.41
                             1432.90  1501.25  1532.68  1536.70  1547.50
                             1605.97  1608.74  1643.26  1655.04  1674.75
                             1698.75  1707.01  1727.51  1782.83  1822.29
                             1873.39  1899.26  1916.69  1930.00  1936.50
                             1941.31  2002.17  2002.51  2007.15  2012.73
                             2020.45  2027.88  2039.68  2053.75  2056.09
                             2058.40  2063.21  2108.76  2113.95  2117.23
                             2120.76  2126.42  2127.84  2130.14  2139.44
                             2142.03  2147.10  2150.47  2156.87  2169.02
                             3610.17  4283.13  4390.20  4393.47  4397.84
                             4407.76  4413.34  4437.87  4456.69  4461.72
                             4472.26  4483.24  4485.83  4487.58  4493.40
                             4503.08  4504.76  4511.55  4517.42  4519.11
                             4525.81  4531.20  4544.10  4566.26  4574.18
                             4577.08  4605.54  5585.69

 Zero-point correction=                           0.394275 (Hartree/Particle)
 Thermal correction to Energy=                    0.416468
 Thermal correction to Enthalpy=                  0.417412
 Thermal correction to Gibbs Free Energy=         0.345272
 Sum of electronic and zero-point Energies=          -1455.498974
 Sum of electronic and thermal Energies=             -1455.476781
 Sum of electronic and thermal Enthalpies=           -1455.475836
 Sum of electronic and thermal Free Energies=        -1455.547977

                     E (Thermal)             CV                S
                      KCal/Mol        Cal/Mol-Kelvin    Cal/Mol-Kelvin
 Total                  261.337             84.813            151.832
 Electronic               0.000              0.000              0.000
 Translational            0.889              2.981             42.842
 Rotational               0.889              2.981             33.442
 Vibrational            259.560             78.851             75.548
 Vibration     1          0.594              1.982              5.459
 Vibration     2          0.596              1.976              4.651
 Vibration     3          0.597              1.971              4.328
 Vibration     4          0.600              1.961              3.830
 Vibration     5          0.603              1.954              3.578
 Vibration     6          0.608              1.937              3.178
 Vibration     7          0.608              1.936              3.172
 Vibration     8          0.612              1.924              2.953
 Vibration     9          0.613              1.919              2.883
 Vibration    10          0.629              1.869              2.346
 Vibration    11          0.632              1.857              2.252
 Vibration    12          0.637              1.843              2.155
 Vibration    13          0.647              1.810              1.955
 Vibration    14          0.652              1.795              1.880
 Vibration    15          0.653              1.792              1.863
 Vibration    16          0.660              1.771              1.764
 Vibration    17          0.667              1.750              1.677
 Vibration    18          0.676              1.721              1.571
 Vibration    19          0.682              1.705              1.514
 Vibration    20          0.691              1.679              1.432
 Vibration    21          0.693              1.673              1.414
 Vibration    22          0.696              1.663              1.386
 Vibration    23          0.706              1.635              1.310
 Vibration    24          0.715              1.609              1.245
 Vibration    25          0.718              1.600              1.223
 Vibration    26          0.726              1.578              1.172
 Vibration    27          0.731              1.564              1.143
 Vibration    28          0.755              1.499              1.014
 Vibration    29          0.762              1.481              0.982
 Vibration    30          0.778              1.440              0.912
 Vibration    31          0.798              1.388              0.834
 Vibration    32          0.811              1.356              0.789
 Vibration    33          0.825              1.320              0.742
 Vibration    34          0.835              1.297              0.713
 Vibration    35          0.867              1.223              0.628
 Vibration    36          0.916              1.117              0.523
 Vibration    37          0.939              1.070              0.482

 Optimization completed.
    -- Stationary point found.
 Normal termination of Gaussian 09 at Tue Nov  5 12:56:11 2019.
