 Gaussian 09, Revision D.01,
 Gaussian 09:  ES64L-G09RevD.01 24-Apr-2013

 ----------------------------------------------------------------------
 #P M062X/6-311G(d,p) Opt(TS,NoEigenTest,ReadFC) Freq SCF(Conver=9) SCR
 F(SMD) Int(Grid=UltraFine) Guess(Read) Geom(Check)
 ----------------------------------------------------------------------

 -----------------------------------------
 TS Opt; potential TS; step 9 VXh13_10_psP
 -----------------------------------------
 Structure from the checkpoint file:  "VXh13_20_P9_SMD.chk"
 Charge =  0 Multiplicity = 1

 SCF Done:  E(RM062X) =  -1455.88230115     A.U. after   13 cycles
 SCF Done:  E(RM062X) =  -1455.88372888     A.U. after   13 cycles
 SCF Done:  E(RM062X) =  -1455.88219582     A.U. after   13 cycles
 SCF Done:  E(RM062X) =  -1455.88377020     A.U. after   13 cycles
 SCF Done:  E(RM062X) =  -1455.88373110     A.U. after   13 cycles
 SCF Done:  E(RM062X) =  -1455.88384956     A.U. after   12 cycles
 SCF Done:  E(RM062X) =  -1455.88398127     A.U. after   12 cycles
 SCF Done:  E(RM062X) =  -1455.88399626     A.U. after   11 cycles
 SCF Done:  E(RM062X) =  -1455.88400080     A.U. after   10 cycles
 SCF Done:  E(RM062X) =  -1455.88400571     A.U. after   10 cycles
 SCF Done:  E(RM062X) =  -1455.88400744     A.U. after   11 cycles
 SCF Done:  E(RM062X) =  -1455.88400780     A.U. after   10 cycles
 SCF Done:  E(RM062X) =  -1455.88400794     A.U. after    8 cycles
 SCF Done:  E(RM062X) =  -1455.88400765     A.U. after    9 cycles
 SCF Done:  E(RM062X) =  -1455.88400778     A.U. after    8 cycles
 SCF Done:  E(RM062X) =  -1455.88400792     A.U. after    8 cycles
 SCF Done:  E(RM062X) =  -1455.88400777     A.U. after    8 cycles
 SCF Done:  E(RM062X) =  -1455.88400649     A.U. after   10 cycles
 SCF Done:  E(RM062X) =  -1455.88400779     A.U. after   10 cycles
 Optimization completed.
    -- Stationary point found.
 Normal termination of Gaussian 09 at Sat Nov 25 12:35:41 2017.

 ----------------------------------------------------------------------
 #P Geom=AllCheck Guess=TCheck SCRF=Check GenChk RM062X/6-311G(d,p) Fre
 q
 ----------------------------------------------------------------------

 Structure from the checkpoint file:  "VXh13_20_P9_SMD.chk"
 -----------------------------------------
 TS Opt; potential TS; step 9 VXh13_10_psP
 -----------------------------------------
 Charge =  0 Multiplicity = 1

                         Standard orientation:
 ---------------------------------------------------------------------
 Center     Atomic      Atomic             Coordinates (Angstroms)
 Number     Number       Type             X           Y           Z
 ---------------------------------------------------------------------
      1         15           0       -2.318029   -0.137471   -0.014644
      2         16           0       -1.072446   -1.042630   -1.446303
      3          8           0       -2.277899    1.392784   -0.569346
      4          6           0        0.147857   -2.000254   -0.458575
      5          6           0       -1.054534    2.162948   -0.512228
      6          8           0       -1.675685    0.054711    1.421971
      7          6           0       -4.086710   -0.374726   -0.247384
      8          1           0       -4.277666   -1.377850   -0.616251
      9          1           0       -4.457038    0.382093   -0.936256
     10          1           0       -4.559378   -0.257081    0.729710
     11          1           0       -0.915230    2.585748   -1.508256
     12          1           0       -0.212430    1.498841   -0.302383
     13          6           0       -1.180722    3.248063    0.533158
     14          1           0       -0.263331    3.841010    0.559922
     15          1           0       -1.344218    2.814156    1.521758
     16          1           0       -2.014772    3.912230    0.298140
     17          6           0        1.568955   -1.483782   -0.652607
     18          1           0       -0.147144   -1.973816    0.586688
     19          1           0        0.079710   -3.031343   -0.805055
     20          1           0        2.241202   -2.273257   -0.277954
     21          7           0        1.823252   -0.194822   -0.026296
     22          1           0        1.760713   -1.401128   -1.724157
     23          6           0        2.921821    0.556371   -0.672457
     24          6           0        1.903512   -0.268242    1.445231
     25          6           0        1.595452    1.086405    2.080924
     26          6           0        3.218130   -0.830109    2.001116
     27          1           0        1.104139   -0.947581    1.754190
     28          1           0        3.278164    1.276280    0.067334
     29          6           0        2.386027    1.347404   -1.864564
     30          6           0        4.131073   -0.285532   -1.110204
     31          1           0        0.627598    1.463732    1.747307
     32          1           0        2.359427    1.830415    1.840457
     33          1           0        1.567133    0.986681    3.168931
     34          1           0        3.463393   -1.800662    1.563546
     35          1           0        3.131501   -0.963708    3.082249
     36          1           0        4.049606   -0.144590    1.814673
     37          1           0        3.198325    1.874551   -2.372038
     38          1           0        1.645075    2.082373   -1.544054
     39          1           0        1.913898    0.679300   -2.591766
     40          1           0        4.953842    0.381050   -1.380425
     41          1           0        3.898613   -0.890401   -1.990785
     42          1           0        4.483200   -0.951276   -0.321676
     43          8           0       -2.526544   -2.032402    1.078997
     44          1           0       -1.861924   -0.979124    1.689067
     45          1           0       -1.999745   -2.780768    0.784228
 ---------------------------------------------------------------------

 SCF Done:  E(RM062X) =  -1455.88400779     A.U. after    1 cycles

 The electronic state is 1-A.
 Alpha  occ. eigenvalues --  -89.89985 -78.16317 -19.64080 -19.63195 -19.56799
 Alpha  occ. eigenvalues --  -14.72408 -10.58344 -10.56833 -10.55690 -10.55567
 Alpha  occ. eigenvalues --  -10.55524 -10.54227 -10.51923 -10.51072 -10.51053
 Alpha  occ. eigenvalues --  -10.51047 -10.51034  -8.26644  -6.97319  -6.18776
 Alpha  occ. eigenvalues --   -6.18526  -6.18145  -5.09157  -5.09054  -5.08866
 Alpha  occ. eigenvalues --   -1.19342  -1.14464  -1.04502  -1.02503  -0.90047
 Alpha  occ. eigenvalues --   -0.87602  -0.86917  -0.83792  -0.82242  -0.78095
 Alpha  occ. eigenvalues --   -0.76917  -0.76030  -0.71950  -0.69686  -0.67754
 Alpha  occ. eigenvalues --   -0.64939  -0.61387  -0.60063  -0.57730  -0.55921
 Alpha  occ. eigenvalues --   -0.55555  -0.54593  -0.53683  -0.51766  -0.50435
 Alpha  occ. eigenvalues --   -0.49757  -0.49477  -0.48943  -0.47857  -0.47365
 Alpha  occ. eigenvalues --   -0.46482  -0.46404  -0.46003  -0.45353  -0.44226
 Alpha  occ. eigenvalues --   -0.43920  -0.43362  -0.43207  -0.43015  -0.42451
 Alpha  occ. eigenvalues --   -0.41395  -0.40450  -0.40200  -0.39109  -0.38694
 Alpha  occ. eigenvalues --   -0.37984  -0.37168  -0.36862  -0.36434  -0.35133
 Alpha  occ. eigenvalues --   -0.34534  -0.30446  -0.26333
 Alpha virt. eigenvalues --    0.02552   0.05280   0.07529   0.08175   0.09293
 Alpha virt. eigenvalues --    0.09838   0.11009   0.11336   0.11934   0.12164
 Alpha virt. eigenvalues --    0.12436   0.13332   0.13469   0.14116   0.14671

 Mulliken charges:
               1
     1  P    1.001211
     2  S   -0.025782
     3  O   -0.576977
     4  C   -0.463375
     5  C   -0.107757
     6  O   -0.588878
     7  C   -0.598006
     8  H    0.209955
     9  H    0.199554
    10  H    0.218855
    11  H    0.180361
    12  H    0.154852
    13  C   -0.410319
    14  H    0.161279
    15  H    0.151589
    16  H    0.155822
    17  C   -0.162933
    18  H    0.177516
    19  H    0.223926
    20  H    0.162922
    21  N   -0.355233
    22  H    0.183304
    23  C   -0.159658
    24  C   -0.157878
    25  C   -0.377498
    26  C   -0.398397
    27  H    0.179244
    28  H    0.179642
    29  C   -0.366762
    30  C   -0.403926
    31  H    0.143742
    32  H    0.147689
    33  H    0.151287
    34  H    0.153336
    35  H    0.151510
    36  H    0.146022
    37  H    0.146223
    38  H    0.150987
    39  H    0.145036
    40  H    0.153496
    41  H    0.144680
    42  H    0.153581
    43  O   -0.819395
    44  H    0.336180
    45  H    0.308972
 Sum of Mulliken charges =   0.00000

 Dipole moment (field-independent basis, Debye):
    X=              4.0945    Y=             -0.7621    Z=             -1.5316  Tot=              4.4375
 Quadrupole moment (field-independent basis, Debye-Ang):
   XX=           -120.8021   YY=           -117.5883   ZZ=           -129.3364
   XY=             -4.5330   XZ=              4.5574   YZ=              1.7905

  Exact polarizability: 270.354  -8.575 262.743  -3.063   0.453 249.593
 Approx polarizability: 220.843  -6.250 219.984  -2.046   0.496 215.782

 ******    1 imaginary frequencies (negative Signs) ******

                      1                      2                      3
                      A                      A                      A
 Frequencies --   -686.4936                34.6520                41.2572
 Red. masses --      1.4640                 3.7838                 3.5849
 Frc consts  --      0.4065                 0.0027                 0.0036
 IR Inten    --    415.1841                 0.2784                 0.8510

                      4                      5                      6
                      A                      A                      A
 Frequencies --     64.2327                85.4813                96.3479
 Red. masses --      3.6908                 3.5450                 4.1596
 Frc consts  --      0.0090                 0.0153                 0.0228
 IR Inten    --      0.4626                 0.3825                 2.1662

                      7                      8                      9
                      A                      A                      A
 Frequencies --    110.5472               115.0555               124.5854
 Red. masses --      2.7164                 3.6189                 3.0784
 Frc consts  --      0.0196                 0.0282                 0.0282
 IR Inten    --      0.0936                 7.5602                 1.6828

                     10                     11                     12
                      A                      A                      A
 Frequencies --    129.9730               161.1232               185.7928
 Red. masses --      3.0674                 1.9205                 1.6347
 Frc consts  --      0.0305                 0.0294                 0.0332
 IR Inten    --      1.2604                 6.6105                 1.5989

                     13                     14                     15
                      A                      A                      A
 Frequencies --    191.3458               203.0083               214.0477
 Red. masses --      2.3060                 1.3293                 2.7544
 Frc consts  --      0.0497                 0.0323                 0.0744
 IR Inten    --      3.3799                 1.9957                12.3712

                     16                     17                     18
                      A                      A                      A
 Frequencies --    226.6048               237.1742               241.5469
 Red. masses --      4.1818                 1.6176                 1.3279
 Frc consts  --      0.1265                 0.0536                 0.0456
 IR Inten    --      8.8800                 2.3739                 1.2445

                     19                     20                     21
                      A                      A                      A
 Frequencies --    249.4795               273.1415               282.1501
 Red. masses --      2.1390                 1.8257                 1.7801
 Frc consts  --      0.0784                 0.0803                 0.0835
 IR Inten    --      3.8803                 1.8691                19.4106

                     22                     23                     24
                      A                      A                      A
 Frequencies --    283.5896               309.0378               311.1913
 Red. masses --      2.3578                 2.0946                 1.9404
 Frc consts  --      0.1117                 0.1179                 0.1107
 IR Inten    --     96.0998                 4.5705                70.6369

                     25                     26                     27
                      A                      A                      A
 Frequencies --    326.4128               328.2863               345.6853
 Red. masses --      3.1092                 1.2499                 2.3212
 Frc consts  --      0.1952                 0.0794                 0.1634
 IR Inten    --    253.3278                19.7641                 2.6198

                     28                     29                     30
                      A                      A                      A
 Frequencies --    352.1959               386.7440               404.2044
 Red. masses --      2.9371                 2.2560                 2.1820
 Frc consts  --      0.2147                 0.1988                 0.2100
 IR Inten    --     25.4140                10.6694                33.0596

                     31                     32                     33
                      A                      A                      A
 Frequencies --    420.4672               454.9556               462.9472
 Red. masses --      4.1486                 1.8497                 2.6463
 Frc consts  --      0.4321                 0.2256                 0.3342
 IR Inten    --    154.8630               117.1379                67.9934

                     34                     35                     36
                      A                      A                      A
 Frequencies --    488.4457               504.5180               529.0431
 Red. masses --      2.6247                 3.0793                 4.1046
 Frc consts  --      0.3689                 0.4618                 0.6769
 IR Inten    --     13.2292                72.6844               123.0802

                     37                     38                     39
                      A                      A                      A
 Frequencies --    563.7010               587.6105               668.8621
 Red. masses --      2.3929                 2.6558                 5.1403
 Frc consts  --      0.4480                 0.5403                 1.3549
 IR Inten    --      6.4918                30.2440                44.6240

                     40                     41                     42
                      A                      A                      A
 Frequencies --    698.4165               713.8558               731.6435
 Red. masses --      1.4616                 2.4147                 2.4332
 Frc consts  --      0.4200                 0.7250                 0.7674
 IR Inten    --    108.1778                53.0631               105.7537

                     43                     44                     45
                      A                      A                      A
 Frequencies --    766.0148               827.9646               833.2107
 Red. masses --      4.5426                 3.3782                 1.1293
 Frc consts  --      1.5705                 1.3645                 0.4619
 IR Inten    --    216.1330               313.6634                 5.7085

                     46                     47                     48
                      A                      A                      A
 Frequencies --    852.0594               875.6748               910.4446
 Red. masses --      2.1496                 2.1251                 1.3997
 Frc consts  --      0.9195                 0.9601                 0.6836
 IR Inten    --      0.1770                 2.4004                71.6781

                     49                     50                     51
                      A                      A                      A
 Frequencies --    920.1252               931.5500               932.1944
 Red. masses --      1.3796                 1.5351                 1.2000
 Frc consts  --      0.6882                 0.7849                 0.6144
 IR Inten    --     10.8251                 0.8247                 1.5423

                     52                     53                     54
                      A                      A                      A
 Frequencies --    948.1628               951.5411               952.9527
 Red. masses --      1.4248                 2.3344                 1.4805
 Frc consts  --      0.7547                 1.2453                 0.7921
 IR Inten    --     12.3636               272.9215                20.6368

                     55                     56                     57
                      A                      A                      A
 Frequencies --    960.9589               961.8046              1005.6120
 Red. masses --      1.3914                 1.8427                 2.0495
 Frc consts  --      0.7570                 1.0043                 1.2211
 IR Inten    --    118.8467                 8.9399                13.3284

                     58                     59                     60
                      A                      A                      A
 Frequencies --   1048.4877              1067.9803              1081.1143
 Red. masses --      3.4378                 1.7122                 4.5900
 Frc consts  --      2.2267                 1.1506                 3.1609
 IR Inten    --    871.6766                38.6245               322.4259

                     61                     62                     63
                      A                      A                      A
 Frequencies --   1110.6029              1119.6836              1141.8538
 Red. masses --      2.2094                 2.0514                 2.1299
 Frc consts  --      1.6056                 1.5153                 1.6362
 IR Inten    --     36.5953                19.9900                 6.5428

                     64                     65                     66
                      A                      A                      A
 Frequencies --   1148.4346              1159.1451              1175.3233
 Red. masses --      1.7142                 1.8850                 1.2573
 Frc consts  --      1.3321                 1.4922                 1.0233
 IR Inten    --     16.5757                81.0167               317.7827

                     67                     68                     69
                      A                      A                      A
 Frequencies --   1186.4790              1199.1839              1205.3677
 Red. masses --      2.0002                 1.6297                 1.7805
 Frc consts  --      1.6590                 1.3808                 1.5242
 IR Inten    --     21.1084                22.5550                58.3523

                     70                     71                     72
                      A                      A                      A
 Frequencies --   1239.2963              1271.1898              1296.5620
 Red. masses --      2.5860                 1.4541                 1.3636
 Frc consts  --      2.3400                 1.3844                 1.3506
 IR Inten    --     86.2680                46.8044                34.4307

                     73                     74                     75
                      A                      A                      A
 Frequencies --   1331.4596              1341.9418              1343.9087
 Red. masses --      1.2277                 1.2472                 1.2502
 Frc consts  --      1.2823                 1.3233                 1.3303
 IR Inten    --     26.1691                22.3302                30.3048

                     76                     77                     78
                      A                      A                      A
 Frequencies --   1345.2146              1348.0150              1391.8187
 Red. masses --      1.1069                 1.3028                 1.3215
 Frc consts  --      1.1802                 1.3948                 1.5083
 IR Inten    --     23.1335                15.8819                 2.7477

                     79                     80                     81
                      A                      A                      A
 Frequencies --   1393.8478              1397.2292              1399.9406
 Red. masses --      1.3179                 1.2680                 1.2365
 Frc consts  --      1.5085                 1.4585                 1.4278
 IR Inten    --     43.3148                18.9636                 6.6078

                     82                     83                     84
                      A                      A                      A
 Frequencies --   1402.3067              1411.3042              1426.6896
 Red. masses --      1.3098                 1.2421                 1.3006
 Frc consts  --      1.5175                 1.4576                 1.5597
 IR Inten    --      9.4580                 5.5767                32.2864

                     85                     86                     87
                      A                      A                      A
 Frequencies --   1432.2063              1433.1230              1435.5032
 Red. masses --      1.0677                 1.2523                 1.0587
 Frc consts  --      1.2903                 1.5154                 1.2854
 IR Inten    --      7.1886                 7.7753                11.5284

                     88                     89                     90
                      A                      A                      A
 Frequencies --   1438.8049              1466.7054              1468.4785
 Red. masses --      1.2699                 1.0432                 1.0518
 Frc consts  --      1.5488                 1.3222                 1.3363
 IR Inten    --     56.0737                 9.9240                 5.7912

                     91                     92                     93
                      A                      A                      A
 Frequencies --   1470.1740              1470.7899              1473.3472
 Red. masses --      1.0753                 1.0472                 1.0559
 Frc consts  --      1.3693                 1.3346                 1.3505
 IR Inten    --     14.6254                 2.5862                 3.6100

                     94                     95                     96
                      A                      A                      A
 Frequencies --   1477.7854              1485.3146              1487.0945
 Red. masses --      1.0662                 1.0596                 1.0625
 Frc consts  --      1.3719                 1.3773                 1.3844
 IR Inten    --      9.8553                 7.1814                 5.1144

                     97                     98                     99
                      A                      A                      A
 Frequencies --   1489.7837              1490.2993              1494.3444
 Red. masses --      1.0558                 1.0506                 1.0778
 Frc consts  --      1.3807                 1.3748                 1.4180
 IR Inten    --      3.6177                 5.8674                 8.4996

                    100                    101                    102
                      A                      A                      A
 Frequencies --   1496.7066              1536.5418              2181.2634
 Red. masses --      1.0754                 1.0769                 1.0508
 Frc consts  --      1.4194                 1.4980                 2.9456
 IR Inten    --     18.8931                13.3329               766.5030

                    103                    104                    105
                      A                      A                      A
 Frequencies --   2985.9541              3053.5249              3055.8768
 Red. masses --      1.0719                 1.0367                 1.0359
 Frc consts  --      5.6308                 5.6951                 5.6995
 IR Inten    --     93.7363                26.6532                22.8312

                    106                    107                    108
                      A                      A                      A
 Frequencies --   3064.3483              3065.1370              3066.2139
 Red. masses --      1.0392                 1.0383                 1.0369
 Frc consts  --      5.7497                 5.7475                 5.7439
 IR Inten    --     37.4762                17.9064                10.1853

                    109                    110                    111
                      A                      A                      A
 Frequencies --   3076.6895              3085.3204              3093.1553
 Red. masses --      1.0607                 1.0827                 1.0349
 Frc consts  --      5.9158                 6.0723                 5.8338
 IR Inten    --     20.0646                25.2041                 2.0547

                    112                    113                    114
                      A                      A                      A
 Frequencies --   3098.3275              3115.1379              3122.9654
 Red. masses --      1.0848                 1.0883                 1.1004
 Frc consts  --      6.1354                 6.2224                 6.3231
 IR Inten    --     15.0918                12.1388                15.7597

                    115                    116                    117
                      A                      A                      A
 Frequencies --   3123.8147              3126.7534              3129.6209
 Red. masses --      1.0676                 1.1022                 1.1059
 Frc consts  --      6.1378                 6.3487                 6.3819
 IR Inten    --     10.1833                 6.2618                 2.8155

                    118                    119                    120
                      A                      A                      A
 Frequencies --   3131.5542              3133.8372              3134.4103
 Red. masses --      1.1000                 1.1004                 1.1022
 Frc consts  --      6.3559                 6.3671                 6.3799
 IR Inten    --     65.8256               103.6068                85.6621

                    121                    122                    123
                      A                      A                      A
 Frequencies --   3138.5339              3144.6127              3152.7711
 Red. masses --      1.1021                 1.1026                 1.1058
 Frc consts  --      6.3965                 6.4239                 6.4760
 IR Inten    --     54.1389                26.4174                43.3419

                    124                    125                    126
                      A                      A                      A
 Frequencies --   3155.6608              3158.2715              3184.8264
 Red. masses --      1.1002                 1.1004                 1.1011
 Frc consts  --      6.4551                 6.4667                 6.5804
 IR Inten    --     30.3318                29.6895                 2.3814

                    127                    128                    129
                      A                      A                      A
 Frequencies --   3194.4860              3220.7871              3895.0286
 Red. masses --      1.1011                 1.1060                 1.0666
 Frc consts  --      6.6202                 6.7597                 9.5340
 IR Inten    --      0.7257                 0.6667                62.0209

 - Thermochemistry -
 -------------------
 Temperature   298.150 Kelvin.  Pressure   1.00000 Atm.
 Atom     1 has atomic number 15 and mass  30.97376

 Molecular mass:   285.15275 amu.
 Principal axes and moments of inertia in atomic units:
                           1         2         3
     Eigenvalues --  3352.874646875.599217405.16493
           X            0.99999  -0.00501  -0.00181
           Y            0.00498   0.99987  -0.01513
           Z            0.00189   0.01512   0.99988
 This molecule is an asymmetric top.
 Rotational symmetry number  1.
 Warning -- assumption of classical behavior for rotation
           may cause significant error
 Rotational temperatures (Kelvin)      0.02583     0.01260     0.01170
 Rotational constants (GHZ):           0.53827     0.26248     0.24371
    1 imaginary frequencies ignored.
 Zero-point vibrational energy    1034111.2 (Joules/Mol)
                                  247.15852 (Kcal/Mol)
 Warning -- explicit consideration of  37 degrees of freedom as
           vibrations may cause significant error
 Vibrational temperatures:     49.86    59.36    92.42   122.99   138.62
          (Kelvin)            159.05   165.54   179.25   187.00   231.82
                              267.31   275.30   292.08   307.97   326.03
                              341.24   347.53   358.94   392.99   405.95
                              408.02   444.64   447.73   469.63   472.33
                              497.36   506.73   556.44   581.56   604.96
                              654.58   666.08   702.76   725.89   761.17
                              811.04   845.44   962.34  1004.86  1027.08
                             1052.67  1102.12  1191.25  1198.80  1225.92
                             1259.90  1309.93  1323.85  1340.29  1341.22
                             1364.19  1369.05  1371.08  1382.60  1383.82
                             1446.85  1508.54  1536.58  1555.48  1597.91
                             1610.97  1642.87  1652.34  1667.75  1691.03
                             1707.08  1725.36  1734.25  1783.07  1828.96
                             1865.46  1915.67  1930.75  1933.58  1935.46
                             1939.49  2002.51  2005.43  2010.30  2014.20
                             2017.60  2030.55  2052.69  2060.62  2061.94
                             2065.37  2070.12  2110.26  2112.81  2115.25
                             2116.14  2119.82  2126.20  2137.03  2139.59
                             2143.46  2144.21  2150.03  2153.42  2210.74
                             3138.35  4296.12  4393.34  4396.72  4408.91
                             4410.04  4411.59  4426.66  4439.08  4450.36
                             4457.80  4481.98  4493.25  4494.47  4498.70
                             4502.82  4505.60  4508.89  4509.71  4515.64
                             4524.39  4536.13  4540.29  4544.04  4582.25
                             4596.15  4633.99  5604.07

 Zero-point correction=                           0.393872 (Hartree/Particle)
 Thermal correction to Energy=                    0.416247
 Thermal correction to Enthalpy=                  0.417191
 Thermal correction to Gibbs Free Energy=         0.344240
 Sum of electronic and zero-point Energies=          -1455.490136
 Sum of electronic and thermal Energies=             -1455.467761
 Sum of electronic and thermal Enthalpies=           -1455.466817
 Sum of electronic and thermal Free Energies=        -1455.539768

                     E (Thermal)             CV                S
                      KCal/Mol        Cal/Mol-Kelvin    Cal/Mol-Kelvin
 Total                  261.199             84.706            153.539
 Electronic               0.000              0.000              0.000
 Translational            0.889              2.981             42.842
 Rotational               0.889              2.981             33.501
 Vibrational            259.421             78.744             77.196
 Vibration     1          0.594              1.983              5.544
 Vibration     2          0.594              1.981              5.198
 Vibration     3          0.597              1.971              4.323
 Vibration     4          0.601              1.959              3.761
 Vibration     5          0.603              1.952              3.527
 Vibration     6          0.606              1.941              3.259
 Vibration     7          0.608              1.937              3.182
 Vibration     8          0.610              1.928              3.028
 Vibration     9          0.612              1.923              2.946
 Vibration    10          0.622              1.890              2.537
 Vibration    11          0.632              1.859              2.269
 Vibration    12          0.634              1.852              2.215
 Vibration    13          0.639              1.836              2.106
 Vibration    14          0.644              1.820              2.009
 Vibration    15          0.650              1.800              1.906
 Vibration    16          0.656              1.784              1.824
 Vibration    17          0.658              1.777              1.791
 Vibration    18          0.662              1.764              1.734
 Vibration    19          0.676              1.723              1.576
 Vibration    20          0.681              1.707              1.521
 Vibration    21          0.682              1.704              1.512
 Vibration    22          0.698              1.657              1.367
 Vibration    23          0.700              1.652              1.356
 Vibration    24          0.710              1.623              1.278
 Vibration    25          0.712              1.619              1.269
 Vibration    26          0.724              1.584              1.186
 Vibration    27          0.729              1.571              1.156
 Vibration    28          0.755              1.498              1.013
 Vibration    29          0.769              1.461              0.947
 Vibration    30          0.783              1.426              0.890
 Vibration    31          0.813              1.350              0.781
 Vibration    32          0.821              1.332              0.758
 Vibration    33          0.844              1.276              0.688
 Vibration    34          0.860              1.240              0.647
 Vibration    35          0.884              1.186              0.589
 Vibration    36          0.919              1.110              0.516
 Vibration    37          0.945              1.058              0.471

 Optimization completed.
    -- Stationary point found.
 Normal termination of Gaussian 09 at Sat Nov 25 13:22:32 2017.
