 Gaussian 09, Revision D.01,
 Gaussian 09:  ES64L-G09RevD.01 24-Apr-2013

 ----------------------------------------------------------------------
 #P M062X/6-311++G(d,p) Freq SCRF(SMD) SCF(Conver=9) Int(Grid=UltraFine
 ) Geom(Check) Guess(Read)
 ----------------------------------------------------------------------

 ----------
 vx_sp Freq
 ----------
 Structure from the checkpoint file:  "vx_sp.chk"
 Charge =  0 Multiplicity = 1

                         Standard orientation:
 ---------------------------------------------------------------------
 Center     Atomic      Atomic             Coordinates (Angstroms)
 Number     Number       Type             X           Y           Z
 ---------------------------------------------------------------------
      1         15           0       -2.334324   -0.347783    0.285011
      2         16           0       -1.225527   -1.613629   -0.980858
      3          8           0       -2.592013    0.970139   -0.593565
      4          6           0        0.139532   -2.187564    0.108828
      5          6           0       -1.472662    1.837188   -0.927420
      6          8           0       -1.641933   -0.101509    1.589550
      7          6           0       -3.989707   -1.008982    0.415438
      8          1           0       -3.945042   -1.951812    0.961579
      9          1           0       -4.407428   -1.176237   -0.577928
     10          1           0       -4.604796   -0.292415    0.963325
     11          1           0       -1.499792    1.961447   -2.010090
     12          1           0       -0.539515    1.336701   -0.657592
     13          6           0       -1.626304    3.153701   -0.204693
     14          1           0       -0.786827    3.805873   -0.457546
     15          1           0       -1.633540    3.000316    0.876619
     16          1           0       -2.552799    3.650457   -0.498675
     17          6           0        1.494627   -1.593757   -0.260125
     18          1           0       -0.146802   -1.989666    1.140279
     19          1           0        0.176652   -3.268539   -0.028945
     20          1           0        2.253069   -2.203155    0.259385
     21          7           0        1.641551   -0.174134    0.024859
     22          1           0        1.650294   -1.755471   -1.328737
     23          6           0        2.645019    0.489230   -0.838782
     24          6           0        1.784160    0.115315    1.465353
     25          6           0        1.345699    1.544155    1.780041
     26          6           0        3.174158   -0.154607    2.055707
     27          1           0        1.081329   -0.551085    1.972012
     28          1           0        2.957789    1.390468   -0.307176
     29          6           0        2.006258    0.929494   -2.154949
     30          6           0        3.911016   -0.331801   -1.132098
     31          1           0        0.330363    1.726530    1.425382
     32          1           0        2.011362    2.282153    1.323577
     33          1           0        1.365223    1.710006    2.860459
     34          1           0        3.514491   -1.172648    1.852198
     35          1           0        3.139438   -0.023987    3.140351
     36          1           0        3.914692    0.546088    1.659285
     37          1           0        2.756910    1.370077   -2.816703
     38          1           0        1.222941    1.670598   -1.983761
     39          1           0        1.561978    0.074478   -2.674720
     40          1           0        4.655818    0.314087   -1.604074
     41          1           0        3.702902   -1.150658   -1.826083
     42          1           0        4.354515   -0.753128   -0.229551
 ---------------------------------------------------------------------

 SCF Done:  E(RM062X) =  -1379.51336787     A.U. after    1 cycles

 The electronic state is 1-A.
 Alpha  occ. eigenvalues --  -89.89513 -78.13860 -19.65699 -19.59753 -14.72465
 Alpha  occ. eigenvalues --  -10.59107 -10.56582 -10.55538 -10.55532 -10.55456
 Alpha  occ. eigenvalues --  -10.54124 -10.52221 -10.51088 -10.51071 -10.51041
 Alpha  occ. eigenvalues --  -10.50996  -8.26166  -6.95234  -6.18282  -6.18051
 Alpha  occ. eigenvalues --   -6.17705  -5.07046  -5.06968  -5.06815  -1.18916
 Alpha  occ. eigenvalues --   -1.10179  -1.02393  -0.89638  -0.87541  -0.86889
 Alpha  occ. eigenvalues --   -0.83844  -0.82266  -0.77804  -0.76725  -0.75978
 Alpha  occ. eigenvalues --   -0.72194  -0.69350  -0.67670  -0.63673  -0.60109
 Alpha  occ. eigenvalues --   -0.56817  -0.55998  -0.55508  -0.55063  -0.53296
 Alpha  occ. eigenvalues --   -0.51835  -0.49994  -0.49531  -0.49157  -0.48741
 Alpha  occ. eigenvalues --   -0.48029  -0.47390  -0.46813  -0.46273  -0.45524
 Alpha  occ. eigenvalues --   -0.44581  -0.43832  -0.43497  -0.43281  -0.43101
 Alpha  occ. eigenvalues --   -0.42133  -0.41208  -0.40551  -0.40366  -0.39161
 Alpha  occ. eigenvalues --   -0.38809  -0.38536  -0.37244  -0.36822  -0.36524
 Alpha  occ. eigenvalues --   -0.34697  -0.30602  -0.26365
 Alpha virt. eigenvalues --    0.00050   0.00877   0.00960   0.01223   0.02190
 Alpha virt. eigenvalues --    0.02617   0.02650   0.03023   0.03156   0.04002
 Alpha virt. eigenvalues --    0.04400   0.04808   0.04911   0.05156   0.05441

 Mulliken charges:
               1
     1  P   -0.102407
     2  S    0.272298
     3  O    0.047509
     4  C   -0.450772
     5  C   -0.199939
     6  O   -0.358715
     7  C   -0.943185
     8  H    0.235896
     9  H    0.258928
    10  H    0.216915
    11  H    0.275070
    12  H   -0.036668
    13  C   -0.533712
    14  H    0.194611
    15  H    0.197252
    16  H    0.201315
    17  C   -0.322926
    18  H    0.193895
    19  H    0.322379
    20  H    0.161093
    21  N    0.321735
    22  H    0.172599
    23  C   -0.314989
    24  C   -0.335528
    25  C   -0.382587
    26  C   -0.669703
    27  H    0.160327
    28  H    0.178460
    29  C   -0.285240
    30  C   -0.630750
    31  H    0.190522
    32  H    0.145853
    33  H    0.196160
    34  H    0.189288
    35  H    0.189170
    36  H    0.178291
    37  H    0.187762
    38  H    0.228577
    39  H    0.125306
    40  H    0.211153
    41  H    0.172244
    42  H    0.142511
 Sum of Mulliken charges =   0.00000

 Dipole moment (field-independent basis, Debye):
    X=              1.4612    Y=             -1.1240    Z=             -2.0857  Tot=              2.7836
 Quadrupole moment (field-independent basis, Debye-Ang):
   XX=           -104.6381   YY=           -107.4375   ZZ=           -124.1099
   XY=              2.3170   XZ=              1.2289   YZ=             -4.1830

  Exact polarizability: 276.488  -8.506 261.508  -1.793   2.975 255.715
 Approx polarizability: 224.538  -6.414 217.045   0.366   3.653 219.865

                      1                      2                      3
                      A                      A                      A
 Frequencies --     23.9472                46.1442                63.0410
 Red. masses --      3.7134                 3.1637                 4.1683
 Frc consts  --      0.0013                 0.0040                 0.0098
 IR Inten    --      3.9866                 0.2796                 2.1705

                      4                      5                      6
                      A                      A                      A
 Frequencies --     80.1603                85.9114               101.1696
 Red. masses --      3.6199                 3.6082                 2.9402
 Frc consts  --      0.0137                 0.0157                 0.0177
 IR Inten    --      2.6934                 1.0559                 0.9789

                      7                      8                      9
                      A                      A                      A
 Frequencies --    106.6804               124.1810               148.4387
 Red. masses --      3.1530                 3.0147                 4.2686
 Frc consts  --      0.0211                 0.0274                 0.0554
 IR Inten    --      3.4806                 0.6579                 2.9291

                     10                     11                     12
                      A                      A                      A
 Frequencies --    182.2948               189.1321               200.0273
 Red. masses --      2.2324                 2.5567                 1.6518
 Frc consts  --      0.0437                 0.0539                 0.0389
 IR Inten    --     12.1095                 4.5027                 1.5635

                     13                     14                     15
                      A                      A                      A
 Frequencies --    213.5842               224.5527               228.8694
 Red. masses --      1.2040                 1.3861                 1.6020
 Frc consts  --      0.0324                 0.0412                 0.0494
 IR Inten    --      0.4549                 0.9334                 0.5096

                     16                     17                     18
                      A                      A                      A
 Frequencies --    238.2623               253.0330               268.5232
 Red. masses --      1.3376                 2.4716                 2.0499
 Frc consts  --      0.0447                 0.0932                 0.0871
 IR Inten    --      1.1357                 1.1013                 2.0444

                     19                     20                     21
                      A                      A                      A
 Frequencies --    281.9505               292.8482               308.8351
 Red. masses --      2.1718                 2.4979                 1.6305
 Frc consts  --      0.1017                 0.1262                 0.0916
 IR Inten    --      9.3694                14.9552                 8.1100

                     22                     23                     24
                      A                      A                      A
 Frequencies --    311.3817               328.4407               339.8435
 Red. masses --      1.8191                 1.3391                 1.9894
 Frc consts  --      0.1039                 0.0851                 0.1354
 IR Inten    --      6.4822                 0.2349                 0.0280

                     25                     26                     27
                      A                      A                      A
 Frequencies --    375.1066               387.3420               400.8064
 Red. masses --      5.9851                 2.2496                 2.1644
 Frc consts  --      0.4962                 0.1989                 0.2049
 IR Inten    --     35.4879                 1.8464                 5.4302

                     28                     29                     30
                      A                      A                      A
 Frequencies --    423.6089               460.1682               470.8189
 Red. masses --      4.3645                 2.9702                 3.4059
 Frc consts  --      0.4614                 0.3706                 0.4448
 IR Inten    --     34.4744                40.1477                39.7738

                     31                     32                     33
                      A                      A                      A
 Frequencies --    503.1593               517.3188               560.1092
 Red. masses --      2.8767                 7.3231                 2.4034
 Frc consts  --      0.4291                 1.1547                 0.4442
 IR Inten    --     66.4330               124.5286                 9.9750

                     34                     35                     36
                      A                      A                      A
 Frequencies --    580.8181               670.2625               713.4774
 Red. masses --      2.5805                 5.2662                 2.4889
 Frc consts  --      0.5129                 1.3939                 0.7465
 IR Inten    --     22.4446                49.5121                 9.3549

                     37                     38                     39
                      A                      A                      A
 Frequencies --    745.0208               796.1565               819.8701
 Red. masses --      3.6114                 3.7976                 1.1451
 Frc consts  --      1.1810                 1.4182                 0.4535
 IR Inten    --    205.7123                88.5365                 2.7949

                     40                     41                     42
                      A                      A                      A
 Frequencies --    853.4963               872.6820               917.6063
 Red. masses --      2.2051                 2.1043                 1.2476
 Frc consts  --      0.9464                 0.9442                 0.6189
 IR Inten    --      0.0428                 3.8704                30.4586

                     43                     44                     45
                      A                      A                      A
 Frequencies --    918.5557               921.7086               924.1871
 Red. masses --      1.3050                 1.6355                 1.5220
 Frc consts  --      0.6488                 0.8187                 0.7659
 IR Inten    --    153.8332                17.7215                97.8789

                     46                     47                     48
                      A                      A                      A
 Frequencies --    925.6581               947.6965               953.2542
 Red. masses --      1.2628                 1.4058                 1.5063
 Frc consts  --      0.6375                 0.7439                 0.8064
 IR Inten    --      4.8090                 0.2894                 5.2215

                     49                     50                     51
                      A                      A                      A
 Frequencies --    958.6557               963.3664               998.4462
 Red. masses --      2.4201                 1.8827                 2.0448
 Frc consts  --      1.3104                 1.0295                 1.2010
 IR Inten    --    168.0062                15.3563                16.7971

                     52                     53                     54
                      A                      A                      A
 Frequencies --   1066.5184              1067.9523              1110.8909
 Red. masses --      3.2911                 1.8778                 2.1858
 Frc consts  --      2.2056                 1.2618                 1.5893
 IR Inten    --    291.7909                83.4613                25.0561

                     55                     56                     57
                      A                      A                      A
 Frequencies --   1122.8123              1138.4683              1147.6806
 Red. masses --      2.0522                 2.1258                 1.9263
 Frc consts  --      1.5244                 1.6233                 1.4949
 IR Inten    --     22.6089                 8.8304                40.1129

                     58                     59                     60
                      A                      A                      A
 Frequencies --   1158.0956              1181.4057              1183.6525
 Red. masses --      1.9066                 5.3422                 2.1473
 Frc consts  --      1.5066                 4.3931                 1.7726
 IR Inten    --     29.4231               268.8339                92.9737

                     61                     62                     63
                      A                      A                      A
 Frequencies --   1200.1699              1201.2254              1238.4346
 Red. masses --      1.8512                 1.8550                 2.6281
 Frc consts  --      1.5711                 1.5770                 2.3749
 IR Inten    --     59.9750               160.4874                85.5026

                     64                     65                     66
                      A                      A                      A
 Frequencies --   1261.9808              1295.9745              1335.1881
 Red. masses --      1.5667                 1.3367                 1.2118
 Frc consts  --      1.4700                 1.3228                 1.2728
 IR Inten    --     39.4175                10.4638                 8.9272

                     67                     68                     69
                      A                      A                      A
 Frequencies --   1336.3771              1338.9639              1339.5617
 Red. masses --      1.1277                 1.2707                 1.2812
 Frc consts  --      1.1866                 1.3422                 1.3546
 IR Inten    --     17.9554                35.1366                64.2668

                     70                     71                     72
                      A                      A                      A
 Frequencies --   1344.1718              1387.4818              1389.3363
 Red. masses --      1.3022                 1.3383                 1.3263
 Frc consts  --      1.3863                 1.5180                 1.5084
 IR Inten    --     20.0903                 0.2147                53.9525

                     73                     74                     75
                      A                      A                      A
 Frequencies --   1394.0972              1396.2199              1398.5072
 Red. masses --      1.2544                 1.2387                 1.2740
 Frc consts  --      1.4364                 1.4227                 1.4680
 IR Inten    --     16.3561                 3.2077                 6.9655

                     76                     77                     78
                      A                      A                      A
 Frequencies --   1405.5092              1423.0294              1429.0757
 Red. masses --      1.2653                 1.0445                 1.2961
 Frc consts  --      1.4727                 1.2462                 1.5596
 IR Inten    --      5.2862                12.8682                30.8246

                     79                     80                     81
                      A                      A                      A
 Frequencies --   1430.2469              1434.8455              1435.8111
 Red. masses --      1.2926                 1.2984                 1.0594
 Frc consts  --      1.5579                 1.5749                 1.2868
 IR Inten    --     22.9533                30.2205                24.4675

                     82                     83                     84
                      A                      A                      A
 Frequencies --   1461.0268              1465.6895              1469.3431
 Red. masses --      1.0917                 1.0507                 1.0482
 Frc consts  --      1.3731                 1.3299                 1.3333
 IR Inten    --     22.9633                 1.1640                 0.9363

                     85                     86                     87
                      A                      A                      A
 Frequencies --   1470.1908              1471.9647              1477.2916
 Red. masses --      1.0410                 1.0554                 1.0575
 Frc consts  --      1.3257                 1.3473                 1.3597
 IR Inten    --     12.6474                 0.9391                 8.9677

                     88                     89                     90
                      A                      A                      A
 Frequencies --   1480.8442              1485.3399              1486.4023
 Red. masses --      1.0505                 1.0490                 1.0739
 Frc consts  --      1.3573                 1.3636                 1.3980
 IR Inten    --      2.0654                 5.2775                16.7112

                     91                     92                     93
                      A                      A                      A
 Frequencies --   1489.0835              1491.2095              1497.1950
 Red. masses --      1.0634                 1.0787                 1.0723
 Frc consts  --      1.3893                 1.4133                 1.4162
 IR Inten    --      5.9716                10.4194                12.4223

                     94                     95                     96
                      A                      A                      A
 Frequencies --   1534.1224              2978.1444              3051.5051
 Red. masses --      1.0738                 1.0720                 1.0372
 Frc consts  --      1.4890                 5.6018                 5.6903
 IR Inten    --     16.5065                99.1338                27.9289

                     97                     98                     99
                      A                      A                      A
 Frequencies --   3053.4218              3060.5537              3064.1949
 Red. masses --      1.0361                 1.0394                 1.0385
 Frc consts  --      5.6915                 5.7366                 5.7451
 IR Inten    --     24.1417                24.6699                29.3232

                    100                    101                    102
                      A                      A                      A
 Frequencies --   3065.7310              3076.9744              3084.0435
 Red. masses --      1.0359                 1.0329                 1.0621
 Frc consts  --      5.7362                 5.7617                 5.9519
 IR Inten    --     12.5953                 2.4188                13.5462

                    103                    104                    105
                      A                      A                      A
 Frequencies --   3087.8394              3096.0045              3110.2167
 Red. masses --      1.0831                 1.0848                 1.0864
 Frc consts  --      6.0843                 6.1263                 6.1921
 IR Inten    --     16.2846                17.5184                12.5211

                    106                    107                    108
                      A                      A                      A
 Frequencies --   3116.2554              3119.6409              3122.9285
 Red. masses --      1.0659                 1.1011                 1.1020
 Frc consts  --      6.0988                 6.3137                 6.3322
 IR Inten    --     16.1230                13.4040                 1.1782

                    109                    110                    111
                      A                      A                      A
 Frequencies --   3128.7828              3131.1042              3132.8084
 Red. masses --      1.1004                 1.0995                 1.1026
 Frc consts  --      6.3465                 6.3509                 6.3760
 IR Inten    --     72.4423               124.8386                49.9747

                    112                    113                    114
                      A                      A                      A
 Frequencies --   3136.1433              3138.9311              3144.6762
 Red. masses --      1.1036                 1.1031                 1.1022
 Frc consts  --      6.3950                 6.4036                 6.4216
 IR Inten    --     11.1275                41.7355                26.9258

                    115                    116                    117
                      A                      A                      A
 Frequencies --   3153.5990              3157.3187              3157.7673
 Red. masses --      1.1009                 1.1005                 1.1064
 Frc consts  --      6.4506                 6.4634                 6.5002
 IR Inten    --     43.5750                34.5981                22.1852

                    118                    119                    120
                      A                      A                      A
 Frequencies --   3173.2304              3175.5942              3179.0702
 Red. masses --      1.1049                 1.1039                 1.1048
 Frc consts  --      6.5550                 6.5588                 6.5787
 IR Inten    --      0.6739                 0.3461                 0.6879

 - Thermochemistry -
 -------------------
 Temperature   298.150 Kelvin.  Pressure   1.00000 Atm.
 Atom     1 has atomic number 15 and mass  30.97376

 Molecular mass:   267.14219 amu.
 Principal axes and moments of inertia in atomic units:
                           1         2         3
     Eigenvalues --  3051.011466172.676636684.35141
           X            0.99998  -0.00686  -0.00132
           Y            0.00680   0.99924  -0.03842
           Z            0.00159   0.03841   0.99926
 This molecule is an asymmetric top.
 Rotational symmetry number  1.
 Warning -- assumption of classical behavior for rotation
           may cause significant error
 Rotational temperatures (Kelvin)      0.02839     0.01403     0.01296
 Rotational constants (GHZ):           0.59152     0.29238     0.26999
 Zero-point vibrational energy     974899.5 (Joules/Mol)
                                  233.00658 (Kcal/Mol)
 Warning -- explicit consideration of  34 degrees of freedom as
           vibrations may cause significant error
 Vibrational temperatures:     34.45    66.39    90.70   115.33   123.61
          (Kelvin)            145.56   153.49   178.67   213.57   262.28
                              272.12   287.79   307.30   323.08   329.29
                              342.81   364.06   386.34   405.66   421.34
                              444.34   448.01   472.55   488.96   539.69
                              557.30   576.67   609.48   662.08   677.40
                              723.93   744.31   805.87   835.67   964.36
                             1026.53  1071.92  1145.49  1179.61  1227.99
                             1255.59  1320.23  1321.60  1326.13  1329.70
                             1331.81  1363.52  1371.52  1379.29  1386.07
                             1436.54  1534.48  1536.54  1598.32  1615.47
                             1638.00  1651.25  1666.24  1699.78  1703.01
                             1726.77  1728.29  1781.83  1815.71  1864.62
                             1921.04  1922.75  1926.47  1927.33  1933.96
                             1996.27  1998.94  2005.79  2008.85  2012.14
                             2022.21  2047.42  2056.12  2057.80  2064.42
                             2065.81  2102.09  2108.80  2114.05  2115.27
                             2117.83  2125.49  2130.60  2137.07  2138.60
                             2142.46  2145.52  2154.13  2207.26  4284.88
                             4390.43  4393.19  4403.45  4408.69  4410.90
                             4427.07  4437.25  4442.71  4454.45  4474.90
                             4483.59  4488.46  4493.19  4501.62  4504.95
                             4507.41  4512.21  4516.22  4524.48  4537.32
                             4542.67  4543.32  4565.57  4568.97  4573.97

 Zero-point correction=                           0.371320 (Hartree/Particle)
 Thermal correction to Energy=                    0.392294
 Thermal correction to Enthalpy=                  0.393238
 Thermal correction to Gibbs Free Energy=         0.322432
 Sum of electronic and zero-point Energies=          -1379.142048
 Sum of electronic and thermal Energies=             -1379.121074
 Sum of electronic and thermal Enthalpies=           -1379.120130
 Sum of electronic and thermal Free Energies=        -1379.190936

                     E (Thermal)             CV                S
                      KCal/Mol        Cal/Mol-Kelvin    Cal/Mol-Kelvin
 Total                  246.168             78.210            149.024
 Electronic               0.000              0.000              0.000
 Translational            0.889              2.981             42.647
 Rotational               0.889              2.981             33.198
 Vibrational            244.391             72.248             73.179
 Vibration     1          0.593              1.985              6.277
 Vibration     2          0.595              1.979              4.976
 Vibration     3          0.597              1.972              4.360
 Vibration     4          0.600              1.963              3.887
 Vibration     5          0.601              1.959              3.751
 Vibration     6          0.604              1.948              3.432
 Vibration     7          0.606              1.944              3.328
 Vibration     8          0.610              1.929              3.034
 Vibration     9          0.618              1.904              2.692
 Vibration    10          0.630              1.864              2.305
 Vibration    11          0.633              1.855              2.236
 Vibration    12          0.638              1.840              2.133
 Vibration    13          0.644              1.820              2.013
 Vibration    14          0.649              1.804              1.922
 Vibration    15          0.652              1.797              1.888
 Vibration    16          0.656              1.782              1.816
 Vibration    17          0.664              1.758              1.709
 Vibration    18          0.673              1.731              1.606
 Vibration    19          0.681              1.707              1.522
 Vibration    20          0.688              1.687              1.457
 Vibration    21          0.698              1.657              1.369
 Vibration    22          0.700              1.652              1.355
 Vibration    23          0.712              1.619              1.268
 Vibration    24          0.720              1.596              1.213
 Vibration    25          0.746              1.523              1.059
 Vibration    26          0.756              1.497              1.010
 Vibration    27          0.767              1.468              0.960
 Vibration    28          0.786              1.419              0.880
 Vibration    29          0.818              1.338              0.766
 Vibration    30          0.828              1.315              0.735
 Vibration    31          0.858              1.243              0.650
 Vibration    32          0.872              1.212              0.616
 Vibration    33          0.916              1.118              0.524
 Vibration    34          0.938              1.073              0.484

 Optimization completed.
    -- Stationary point found.
 Normal termination of Gaussian 09 at Thu Jul 18 18:53:41 2019.
