 Gaussian 09, Revision D.01,
 Gaussian 09:  ES64L-G09RevD.01 24-Apr-2013

 ----------------------------------------------------------------------
 #P RB3LYP/6-311G(d,p) EmpiricalDispersion(GD3BJ) Opt Freq Geom(Check)
 Guess(Read)
 ----------------------------------------------------------------------

 -------------------------------
 Geom Opt & Freq Analysis VXh_1a
 -------------------------------
 Structure from the checkpoint file:  "VXh_1a.chk"
 Charge =  0 Multiplicity = 1

 SCF Done:  E(RB3LYP) =  -1456.41365150     A.U. after   11 cycles
 SCF Done:  E(RB3LYP) =  -1456.39636640     A.U. after   12 cycles
 SCF Done:  E(RB3LYP) =  -1456.41403376     A.U. after   11 cycles
 SCF Done:  E(RB3LYP) =  -1456.40726369     A.U. after   14 cycles
 SCF Done:  E(RB3LYP) =  -1456.41446790     A.U. after   10 cycles
 SCF Done:  E(RB3LYP) =  -1456.41369710     A.U. after   12 cycles
 SCF Done:  E(RB3LYP) =  -1456.41467984     A.U. after    9 cycles
 SCF Done:  E(RB3LYP) =  -1456.41459530     A.U. after   11 cycles
 SCF Done:  E(RB3LYP) =  -1456.41484161     A.U. after   11 cycles
 SCF Done:  E(RB3LYP) =  -1456.41377137     A.U. after   12 cycles
 SCF Done:  E(RB3LYP) =  -1456.41491945     A.U. after    9 cycles
 SCF Done:  E(RB3LYP) =  -1456.41492231     A.U. after    9 cycles
 SCF Done:  E(RB3LYP) =  -1456.41492582     A.U. after    9 cycles
 SCF Done:  E(RB3LYP) =  -1456.41492875     A.U. after    9 cycles
 SCF Done:  E(RB3LYP) =  -1456.41492987     A.U. after    7 cycles
 SCF Done:  E(RB3LYP) =  -1456.41493004     A.U. after    7 cycles
 SCF Done:  E(RB3LYP) =  -1456.41493009     A.U. after    6 cycles
 SCF Done:  E(RB3LYP) =  -1456.41493002     A.U. after    6 cycles
 SCF Done:  E(RB3LYP) =  -1456.41493002     A.U. after    6 cycles
 Optimization completed.
    -- Stationary point found.
 Normal termination of Gaussian 09 at Thu Jun 29 14:31:48 2017.

 ----------------------------------------------------------------------
 #P Geom=AllCheck Guess=TCheck SCRF=Check GenChk RB3LYP/6-311G(d,p) Fre
 q
 ----------------------------------------------------------------------

 Structure from the checkpoint file:  "VXh_1a.chk"
 -------------------------------
 Geom Opt & Freq Analysis VXh_1a
 -------------------------------
 Charge =  0 Multiplicity = 1

                         Standard orientation:
 ---------------------------------------------------------------------
 Center     Atomic      Atomic             Coordinates (Angstroms)
 Number     Number       Type             X           Y           Z
 ---------------------------------------------------------------------
      1         15           0       -2.387441   -0.262216   -0.162560
      2         16           0       -1.128131   -0.424521   -1.859041
      3          8           0       -3.268224    1.056836   -0.451262
      4          6           0        0.441630   -0.965485   -1.039385
      5          6           0       -2.670777    2.379617   -0.376124
      6          8           0       -1.613238   -0.256710    1.121954
      7          6           0       -3.642570   -1.549530   -0.275401
      8          1           0       -3.147092   -2.504767   -0.097018
      9          1           0       -4.111153   -1.542206   -1.258997
     10          1           0       -4.391160   -1.372045    0.498586
     11          1           0       -3.302158    3.002865   -1.008965
     12          1           0       -1.672627    2.341306   -0.821388
     13          6           0       -2.629065    2.885986    1.053430
     14          1           0       -2.229967    3.904222    1.071363
     15          1           0       -1.997478    2.244751    1.668796
     16          1           0       -3.633254    2.901256    1.482249
     17          6           0        1.227103    0.224077   -0.475060
     18          1           0        0.191141   -1.693929   -0.272388
     19          1           0        0.995755   -1.472692   -1.827374
     20          1           0        1.377842    0.956563   -1.274973
     21          7           0        2.492976   -0.186974    0.111112
     22          1           0        0.599587    0.712289    0.271148
     23          6           0        2.603310   -0.101713    1.572842
     24          6           0        3.708096    0.072912   -0.668543
     25          6           0        4.054973    1.559965   -0.879661
     26          6           0        3.660223   -0.655707   -2.016654
     27          1           0        4.523192   -0.375638   -0.090855
     28          1           0        3.632625   -0.396366    1.801582
     29          6           0        1.667826   -1.117044    2.240005
     30          6           0        2.370388    1.295831    2.180510
     31          1           0        4.238328    2.067897    0.067489
     32          1           0        3.248853    2.087215   -1.397492
     33          1           0        4.956933    1.657480   -1.490673
     34          1           0        3.444732   -1.715851   -1.871135
     35          1           0        4.618699   -0.561333   -2.533286
     36          1           0        2.893809   -0.233415   -2.673138
     37          1           0        1.834419   -1.140555    3.320492
     38          1           0        1.850403   -2.114531    1.833462
     39          1           0        0.623689   -0.847208    2.068651
     40          1           0        2.538817    1.267326    3.260708
     41          1           0        1.341248    1.628136    2.022634
     42          1           0        3.039769    2.043923    1.755379
     43          8           0       -1.146703   -3.004864    1.298043
     44          1           0       -1.238852   -2.062260    1.521746
     45          1           0       -0.336723   -3.283592    1.733017
 ---------------------------------------------------------------------

 SCF Done:  E(RB3LYP) =  -1456.41493002     A.U. after    1 cycles

 The electronic state is 1-A.
 Alpha  occ. eigenvalues --  -88.84800 -77.16233 -19.15543 -19.09474 -19.08936
 Alpha  occ. eigenvalues --  -14.29389 -10.23856 -10.20225 -10.19963 -10.19578
 Alpha  occ. eigenvalues --  -10.19218 -10.18135 -10.16705 -10.15838 -10.15708
 Alpha  occ. eigenvalues --  -10.15387 -10.15111  -7.93535  -6.64790  -5.89875
 Alpha  occ. eigenvalues --   -5.89532  -5.88968  -4.81063  -4.80918  -4.80736
 Alpha  occ. eigenvalues --   -1.06657  -0.99299  -0.97780  -0.92298  -0.80236
 Alpha  occ. eigenvalues --   -0.79064  -0.77955  -0.74963  -0.73692  -0.69236
 Alpha  occ. eigenvalues --   -0.68929  -0.68188  -0.65047  -0.62158  -0.59072
 Alpha  occ. eigenvalues --   -0.55772  -0.55043  -0.51663  -0.50854  -0.49630
 Alpha  occ. eigenvalues --   -0.48694  -0.46786  -0.46719  -0.45109  -0.44152
 Alpha  occ. eigenvalues --   -0.43625  -0.43372  -0.42653  -0.42061  -0.41910
 Alpha  occ. eigenvalues --   -0.40658  -0.40150  -0.39921  -0.39550  -0.38927
 Alpha  occ. eigenvalues --   -0.38619  -0.38015  -0.37730  -0.37191  -0.36488
 Alpha  occ. eigenvalues --   -0.35740  -0.35378  -0.34893  -0.34432  -0.33569
 Alpha  occ. eigenvalues --   -0.32966  -0.32271  -0.32072  -0.30173  -0.29400
 Alpha  occ. eigenvalues --   -0.28218  -0.25510  -0.20357
 Alpha virt. eigenvalues --    0.00056   0.02644   0.03255   0.04075   0.04313
 Alpha virt. eigenvalues --    0.05836   0.06354   0.06603   0.06818   0.07686
 Alpha virt. eigenvalues --    0.07991   0.08405   0.08579   0.08957   0.09827

 Mulliken charges:
               1
     1  P    0.952566
     2  S   -0.098265
     3  O   -0.511023
     4  C   -0.376532
     5  C   -0.029039
     6  O   -0.626180
     7  C   -0.550871
     8  H    0.188872
     9  H    0.156750
    10  H    0.157717
    11  H    0.128640
    12  H    0.135291
    13  C   -0.304832
    14  H    0.105878
    15  H    0.147848
    16  H    0.116279
    17  C   -0.082257
    18  H    0.144998
    19  H    0.159364
    20  H    0.118170
    21  N   -0.376091
    22  H    0.157370
    23  C   -0.068028
    24  C   -0.069476
    25  C   -0.256286
    26  C   -0.277569
    27  H    0.107914
    28  H    0.102854
    29  C   -0.292065
    30  C   -0.263017
    31  H    0.104618
    32  H    0.097290
    33  H    0.100019
    34  H    0.112816
    35  H    0.104988
    36  H    0.103413
    37  H    0.099531
    38  H    0.093627
    39  H    0.126875
    40  H    0.101416
    41  H    0.106263
    42  H    0.098271
    43  O   -0.471646
    44  H    0.282336
    45  H    0.241202
 Sum of Mulliken charges =   0.00000

 Dipole moment (field-independent basis, Debye):
    X=              1.0282    Y=              1.8605    Z=             -0.1439  Tot=              2.1306
 Quadrupole moment (field-independent basis, Debye-Ang):
   XX=           -116.1282   YY=           -123.6297   ZZ=           -127.3380
   XY=             -4.9791   XZ=              1.9512   YZ=             -0.6336

  Exact polarizability: 213.191   2.919 175.114  -2.321   2.785 180.611
 Approx polarizability: 280.005  -4.627 246.252   0.171  -0.261 270.259

                      1                      2                      3
                      A                      A                      A
 Frequencies --     17.5316                21.6033                36.7337
 Red. masses --      3.7018                 3.7002                 2.5262
 Frc consts  --      0.0007                 0.0010                 0.0020
 IR Inten    --      0.0451                 0.2027                 0.3351

                      4                      5                      6
                      A                      A                      A
 Frequencies --     45.8398                63.6458                68.6073
 Red. masses --      3.0895                 3.9359                 3.5015
 Frc consts  --      0.0038                 0.0094                 0.0097
 IR Inten    --      0.1752                 2.9696                 0.5316

                      7                      8                      9
                      A                      A                      A
 Frequencies --     78.8452                90.5840               106.1673
 Red. masses --      2.8814                 3.9219                 5.3897
 Frc consts  --      0.0106                 0.0190                 0.0358
 IR Inten    --      0.3666                 1.5832                 5.8573

                     10                     11                     12
                      A                      A                      A
 Frequencies --    106.8747               131.8883               151.4289
 Red. masses --      4.3194                 3.3426                 2.9167
 Frc consts  --      0.0291                 0.0343                 0.0394
 IR Inten    --     11.3209                 1.6454                18.6180

                     13                     14                     15
                      A                      A                      A
 Frequencies --    169.7453               177.0423               191.3618
 Red. masses --      2.6198                 2.1175                 1.8790
 Frc consts  --      0.0445                 0.0391                 0.0405
 IR Inten    --     13.0040                29.8333                54.2236

                     16                     17                     18
                      A                      A                      A
 Frequencies --    194.3174               213.6378               219.0384
 Red. masses --      1.1369                 1.2836                 1.7336
 Frc consts  --      0.0253                 0.0345                 0.0490
 IR Inten    --      1.2509                12.9128                 7.4849

                     19                     20                     21
                      A                      A                      A
 Frequencies --    224.8042               228.9864               250.0108
 Red. masses --      2.3955                 1.1660                 1.4173
 Frc consts  --      0.0713                 0.0360                 0.0522
 IR Inten    --      7.5703                 0.5015                 0.8245

                     22                     23                     24
                      A                      A                      A
 Frequencies --    267.6324               277.6371               286.1379
 Red. masses --      1.2941                 2.4667                 1.3355
 Frc consts  --      0.0546                 0.1120                 0.0644
 IR Inten    --      0.8712                 1.3181                 2.0612

                     25                     26                     27
                      A                      A                      A
 Frequencies --    289.7373               301.1442               311.8670
 Red. masses --      1.8837                 3.0193                 2.5802
 Frc consts  --      0.0932                 0.1613                 0.1479
 IR Inten    --      5.4552                12.4833                 1.3757

                     28                     29                     30
                      A                      A                      A
 Frequencies --    326.7483               339.6795               353.9419
 Red. masses --      2.5705                 2.4166                 4.0436
 Frc consts  --      0.1617                 0.1643                 0.2985
 IR Inten    --      0.7083                 1.0168                14.3384

                     31                     32                     33
                      A                      A                      A
 Frequencies --    384.5787               400.3076               405.3941
 Red. masses --      5.0492                 2.1936                 2.2146
 Frc consts  --      0.4400                 0.2071                 0.2144
 IR Inten    --      3.2671                83.4717                 0.7832

                     34                     35                     36
                      A                      A                      A
 Frequencies --    424.3908               486.6816               509.6729
 Red. masses --      1.4947                 4.1191                 2.6956
 Frc consts  --      0.1586                 0.5748                 0.4126
 IR Inten    --     62.6013                45.2188                 3.3987

                     37                     38                     39
                      A                      A                      A
 Frequencies --    517.2990               527.2479               564.3161
 Red. masses --      6.7929                 3.5068                 2.0063
 Frc consts  --      1.0710                 0.5744                 0.3764
 IR Inten    --     89.2065                15.2864                 0.1719

                     40                     41                     42
                      A                      A                      A
 Frequencies --    632.5393               689.1748               722.3430
 Red. masses --      1.0718                 4.5717                 3.8386
 Frc consts  --      0.2527                 1.2793                 1.1801
 IR Inten    --    161.1366                46.3505               125.8543

                     43                     44                     45
                      A                      A                      A
 Frequencies --    748.3037               772.5387               777.8829
 Red. masses --      1.2321                 2.9115                 4.1731
 Frc consts  --      0.4065                 1.0238                 1.4878
 IR Inten    --      0.5956                 1.1672                42.8404

                     46                     47                     48
                      A                      A                      A
 Frequencies --    819.3023               835.9207               901.3179
 Red. masses --      1.1314                 2.7737                 2.2458
 Frc consts  --      0.4475                 1.1419                 1.0749
 IR Inten    --      1.6996                 0.1671                 5.4279

                     49                     50                     51
                      A                      A                      A
 Frequencies --    920.2895               923.0689               928.6900
 Red. masses --      1.3651                 1.3678                 1.5266
 Frc consts  --      0.6812                 0.6866                 0.7758
 IR Inten    --      0.5795                52.0248                 0.1546

                     52                     53                     54
                      A                      A                      A
 Frequencies --    933.9396               938.6870               944.0704
 Red. masses --      2.5180                 1.2795                 1.4923
 Frc consts  --      1.2940                 0.6643                 0.7837
 IR Inten    --     79.0395                 0.2569                99.8756

                     55                     56                     57
                      A                      A                      A
 Frequencies --    945.3553               989.3350              1030.3650
 Red. masses --      1.2380                 1.7934                 3.4320
 Frc consts  --      0.6519                 1.0342                 2.1467
 IR Inten    --      7.6526                 9.9371                 0.7284

                     58                     59                     60
                      A                      A                      A
 Frequencies --   1052.0177              1064.1823              1096.7409
 Red. masses --      4.9834                 2.4093                 1.5527
 Frc consts  --      3.2495                 1.6076                 1.1004
 IR Inten    --    203.9453                24.4475                 6.7530

                     61                     62                     63
                      A                      A                      A
 Frequencies --   1120.0970              1125.3355              1132.6707
 Red. masses --      1.9768                 2.1067                 1.9100
 Frc consts  --      1.4613                 1.5719                 1.4437
 IR Inten    --     19.0014                 0.7303                47.5043

                     64                     65                     66
                      A                      A                      A
 Frequencies --   1136.8165              1181.8346              1187.4601
 Red. masses --      2.0128                 2.4002                 2.1443
 Frc consts  --      1.5326                 1.9752                 1.7815
 IR Inten    --     29.5831                97.5808                22.7699

                     67                     68                     69
                      A                      A                      A
 Frequencies --   1199.6381              1203.7114              1260.4282
 Red. masses --      2.2169                 2.0625                 3.1062
 Frc consts  --      1.8798                 1.7607                 2.9075
 IR Inten    --     96.7563                17.7346                83.6727

                     70                     71                     72
                      A                      A                      A
 Frequencies --   1264.5057              1286.2629              1319.1239
 Red. masses --      1.6168                 1.2204                 1.0983
 Frc consts  --      1.5231                 1.1896                 1.1260
 IR Inten    --     13.7548                23.2789                 6.2637

                     73                     74                     75
                      A                      A                      A
 Frequencies --   1340.0799              1344.8128              1348.1624
 Red. masses --      1.2455                 1.2150                 1.2370
 Frc consts  --      1.3178                 1.2947                 1.3246
 IR Inten    --      1.6896                17.4684                21.9266

                     76                     77                     78
                      A                      A                      A
 Frequencies --   1351.6888              1385.6233              1392.6435
 Red. masses --      1.2828                 1.2979                 1.2490
 Frc consts  --      1.3809                 1.4682                 1.4272
 IR Inten    --      9.2142                10.7682                 0.1395

                     79                     80                     81
                      A                      A                      A
 Frequencies --   1398.0143              1399.1798              1406.2996
 Red. masses --      1.2181                 1.2727                 1.2690
 Frc consts  --      1.4027                 1.4680                 1.4786
 IR Inten    --      2.1455                26.2846                12.4527

                     82                     83                     84
                      A                      A                      A
 Frequencies --   1414.8202              1420.1020              1422.4308
 Red. masses --      1.2385                 1.2211                 1.2855
 Frc consts  --      1.4606                 1.4510                 1.5325
 IR Inten    --     30.1592                 7.0654                21.3442

                     85                     86                     87
                      A                      A                      A
 Frequencies --   1435.2024              1456.4239              1463.7467
 Red. masses --      1.3030                 1.0426                 1.0485
 Frc consts  --      1.5814                 1.3031                 1.3235
 IR Inten    --      4.6350                 4.7537                 9.2204

                     88                     89                     90
                      A                      A                      A
 Frequencies --   1476.2974              1483.4362              1485.1200
 Red. masses --      1.0719                 1.0451                 1.0382
 Frc consts  --      1.3764                 1.3550                 1.3491
 IR Inten    --      4.0877                 0.0097                 3.8939

                     91                     92                     93
                      A                      A                      A
 Frequencies --   1490.0154              1491.4456              1496.5235
 Red. masses --      1.0529                 1.0511                 1.0725
 Frc consts  --      1.3773                 1.3775                 1.4152
 IR Inten    --      3.9939                 0.3642                 3.3732

                     94                     95                     96
                      A                      A                      A
 Frequencies --   1500.6363              1505.1194              1506.2689
 Red. masses --      1.0499                 1.0490                 1.0506
 Frc consts  --      1.3929                 1.4002                 1.4044
 IR Inten    --      2.5455                 2.0127                 0.6995

                     97                     98                     99
                      A                      A                      A
 Frequencies --   1513.1832              1519.3123              1522.8265
 Red. masses --      1.0612                 1.0532                 1.0556
 Frc consts  --      1.4316                 1.4323                 1.4423
 IR Inten    --      3.4702                20.6401                 8.8354

                    100                    101                    102
                      A                      A                      A
 Frequencies --   1523.6102              1663.8664              3017.2017
 Red. masses --      1.0779                 1.0738                 1.0754
 Frc consts  --      1.4742                 1.7514                 5.7679
 IR Inten    --      5.3256                72.4154                13.2746

                    103                    104                    105
                      A                      A                      A
 Frequencies --   3019.1653              3025.5067              3026.4907
 Red. masses --      1.0753                 1.0379                 1.0367
 Frc consts  --      5.7749                 5.5974                 5.5949
 IR Inten    --      3.2189                 9.2709                30.9566

                    106                    107                    108
                      A                      A                      A
 Frequencies --   3031.2423              3032.7496              3036.3728
 Red. masses --      1.0722                 1.0444                 1.0411
 Frc consts  --      5.8047                 5.6595                 5.6550
 IR Inten    --     30.8015                40.7624                16.1386

                    109                    110                    111
                      A                      A                      A
 Frequencies --   3036.8446              3048.0465              3050.5008
 Red. masses --      1.0365                 1.0644                 1.0318
 Frc consts  --      5.6321                 5.8261                 5.6572
 IR Inten    --     21.9988                18.8645                 2.8908

                    112                    113                    114
                      A                      A                      A
 Frequencies --   3083.3198              3086.9629              3092.3779
 Red. masses --      1.1009                 1.1007                 1.0985
 Frc consts  --      6.1667                 6.1797                 6.1895
 IR Inten    --      1.2940                10.1104                73.9771

                    115                    116                    117
                      A                      A                      A
 Frequencies --   3093.4237              3095.4805              3101.4958
 Red. masses --      1.0895                 1.0895                 1.0989
 Frc consts  --      6.1426                 6.1508                 6.2280
 IR Inten    --     54.4009                42.4155                20.7561

                    118                    119                    120
                      A                      A                      A
 Frequencies --   3103.9974              3105.4373              3107.7829
 Red. masses --      1.0807                 1.1021                 1.0982
 Frc consts  --      6.1350                 6.2623                 6.2494
 IR Inten    --     13.8924                 9.7392                19.3923

                    121                    122                    123
                      A                      A                      A
 Frequencies --   3111.5827              3113.6502              3126.5095
 Red. masses --      1.1014                 1.1004                 1.0969
 Frc consts  --      6.2829                 6.2855                 6.3174
 IR Inten    --     44.1469                26.8874                28.4782

                    124                    125                    126
                      A                      A                      A
 Frequencies --   3131.7474              3139.1903              3151.0808
 Red. masses --      1.1038                 1.1035                 1.1046
 Frc consts  --      6.3783                 6.4070                 6.4623
 IR Inten    --     25.5876                 2.3806                 0.9742

                    127                    128                    129
                      A                      A                      A
 Frequencies --   3161.4391              3637.4797              3889.7330
 Red. masses --      1.1064                 1.0592                 1.0695
 Frc consts  --      6.5155                 8.2570                 9.5340
 IR Inten    --      2.6632               239.5693                45.1950

 - Thermochemistry -
 -------------------
 Temperature   298.150 Kelvin.  Pressure   1.00000 Atm.
 Atom     1 has atomic number 15 and mass  30.97376

 Molecular mass:   285.15275 amu.
 Principal axes and moments of inertia in atomic units:
                           1         2         3
     Eigenvalues --  3717.240558271.982058524.86605
           X            0.99995   0.00251  -0.00953
           Y           -0.00210   0.99906   0.04330
           Z            0.00963  -0.04327   0.99902
 This molecule is an asymmetric top.
 Rotational symmetry number  1.
 Warning -- assumption of classical behavior for rotation
           may cause significant error
 Rotational temperatures (Kelvin)      0.02330     0.01047     0.01016
 Rotational constants (GHZ):           0.48551     0.21818     0.21170
 Zero-point vibrational energy    1032740.7 (Joules/Mol)
                                  246.83095 (Kcal/Mol)
 Warning -- explicit consideration of  39 degrees of freedom as
           vibrations may cause significant error
 Vibrational temperatures:     25.22    31.08    52.85    65.95    91.57
          (Kelvin)             98.71   113.44   130.33   152.75   153.77
                              189.76   217.87   244.23   254.72   275.33
                              279.58   307.38   315.15   323.44   329.46
                              359.71   385.06   399.46   411.69   416.87
                              433.28   448.71   470.12   488.72   509.24
                              553.32   575.95   583.27   610.60   700.23
                              733.30   744.28   758.59   811.92   910.08
                              991.57  1039.29  1076.64  1111.51  1119.20
                             1178.79  1202.70  1296.79  1324.09  1328.09
                             1336.18  1343.73  1350.56  1358.30  1360.15
                             1423.43  1482.46  1513.62  1531.12  1577.96
                             1611.57  1619.10  1629.66  1635.62  1700.39
                             1708.49  1726.01  1731.87  1813.47  1819.34
                             1850.64  1897.92  1928.07  1934.88  1939.70
                             1944.78  1993.60  2003.70  2011.43  2013.11
                             2023.35  2035.61  2043.21  2046.56  2064.93
                             2095.47  2106.00  2124.06  2134.33  2136.75
                             2143.80  2145.85  2153.16  2159.08  2165.53
                             2167.18  2177.13  2185.95  2191.00  2192.13
                             2393.93  4341.07  4343.90  4353.02  4354.44
                             4361.28  4363.44  4368.66  4369.34  4385.45
                             4388.98  4436.20  4441.45  4449.24  4450.74
                             4453.70  4462.36  4465.95  4468.03  4471.40
                             4476.87  4479.84  4498.34  4505.88  4516.59
                             4533.70  4548.60  5233.52  5596.45

 Zero-point correction=                           0.393350 (Hartree/Particle)
 Thermal correction to Energy=                    0.418227
 Thermal correction to Enthalpy=                  0.419172
 Thermal correction to Gibbs Free Energy=         0.337729
 Sum of electronic and zero-point Energies=          -1456.021580
 Sum of electronic and thermal Energies=             -1455.996703
 Sum of electronic and thermal Enthalpies=           -1455.995758
 Sum of electronic and thermal Free Energies=        -1456.077201

                     E (Thermal)             CV                S
                      KCal/Mol        Cal/Mol-Kelvin    Cal/Mol-Kelvin
 Total                  262.442             89.121            171.410
 Electronic               0.000              0.000              0.000
 Translational            0.889              2.981             42.842
 Rotational               0.889              2.981             33.927
 Vibrational            260.664             83.160             94.642
 Vibration     1          0.593              1.986              6.896
 Vibration     2          0.593              1.985              6.481
 Vibration     3          0.594              1.982              5.428
 Vibration     4          0.595              1.979              4.989
 Vibration     5          0.597              1.972              4.341
 Vibration     6          0.598              1.969              4.193
 Vibration     7          0.600              1.963              3.919
 Vibration     8          0.602              1.956              3.647
 Vibration     9          0.605              1.944              3.338
 Vibration    10          0.606              1.944              3.325
 Vibration    11          0.612              1.921              2.918
 Vibration    12          0.619              1.901              2.654
 Vibration    13          0.625              1.880              2.438
 Vibration    14          0.628              1.871              2.359
 Vibration    15          0.634              1.852              2.215
 Vibration    16          0.635              1.848              2.186
 Vibration    17          0.644              1.820              2.012
 Vibration    18          0.647              1.812              1.967
 Vibration    19          0.649              1.803              1.920
 Vibration    20          0.652              1.797              1.887
 Vibration    21          0.663              1.763              1.731
 Vibration    22          0.673              1.733              1.611
 Vibration    23          0.679              1.715              1.548
 Vibration    24          0.684              1.699              1.497
 Vibration    25          0.686              1.693              1.475
 Vibration    26          0.693              1.672              1.411
 Vibration    27          0.700              1.651              1.352
 Vibration    28          0.710              1.622              1.276
 Vibration    29          0.720              1.596              1.214
 Vibration    30          0.730              1.567              1.149
 Vibration    31          0.754              1.503              1.021
 Vibration    32          0.766              1.469              0.962
 Vibration    33          0.770              1.458              0.943
 Vibration    34          0.786              1.417              0.877
 Vibration    35          0.843              1.280              0.692
 Vibration    36          0.865              1.229              0.634
 Vibration    37          0.872              1.212              0.616
 Vibration    38          0.882              1.190              0.593
 Vibration    39          0.920              1.108              0.515

 Normal termination of Gaussian 09 at Thu Jun 29 14:51:55 2017.
