 Gaussian 09, Revision D.01,
 Gaussian 09:  ES64L-G09RevD.01 24-Apr-2013

 ----------------------------------------------------------------------
 #P M062X/6-311++G(d,p) Freq SCRF(SMD) SCF(Conver=9) Int(Grid=UltraFine
 ) Geom(Check) Guess(Read)
 ----------------------------------------------------------------------

 -------------
 water_sp Freq
 -------------
 Structure from the checkpoint file:  "water_sp.chk"
 Charge =  0 Multiplicity = 1

                         Standard orientation:
 ---------------------------------------------------------------------
 Center     Atomic      Atomic             Coordinates (Angstroms)
 Number     Number       Type             X           Y           Z
 ---------------------------------------------------------------------
      1          8           0        0.000000    0.000000    0.118221
      2          1           0        0.000000    0.760139   -0.472886
      3          1           0        0.000000   -0.760139   -0.472886
 ---------------------------------------------------------------------

 SCF Done:  E(RM062X) =  -76.4347617199     A.U. after    1 cycles

 The electronic state is 1-A1.
 Alpha  occ. eigenvalues --  -19.62238  -1.13210  -0.60360  -0.47997  -0.40453
 Alpha virt. eigenvalues --    0.00696   0.04576   0.16576   0.17524   0.19017
 Alpha virt. eigenvalues --    0.19407   0.25117   0.25448   0.55454   0.61017
 Alpha virt. eigenvalues --    1.01499   1.05395   1.05778   1.28150   1.32734

 Mulliken charges:
               1
     1  O   -0.651286
     2  H    0.325643
     3  H    0.325643
 Sum of Mulliken charges =   0.00000

 Dipole moment (field-independent basis, Debye):
    X=              0.0000    Y=              0.0000    Z=             -2.6515  Tot=              2.6515
 Quadrupole moment (field-independent basis, Debye-Ang):
   XX=             -7.7904   YY=             -4.1995   ZZ=             -6.3960
   XY=              0.0000   XZ=              0.0000   YZ=              0.0000

  Exact polarizability:   7.427   0.000   9.210   0.000   0.000   7.493
 Approx polarizability:   5.639   0.000   7.833   0.000   0.000   6.186

                      1                      2                      3
                     A1                     A1                     B2
 Frequencies --   1573.8416              3842.8591              3924.5127
 Red. masses --      1.0809                 1.0468                 1.0816
 Frc consts  --      1.5775                 9.1080                 9.8151
 IR Inten    --    129.5025                71.8783               185.7261

 - Thermochemistry -
 -------------------
 Temperature   298.150 Kelvin.  Pressure   1.00000 Atm.
 Atom     1 has atomic number  8 and mass  15.99491

 Molecular mass:    18.01056 amu.
 Principal axes and moments of inertia in atomic units:
                           1         2         3
     Eigenvalues --     2.23357   4.15910   6.39267
           X            0.00000   0.00000   1.00000
           Y            1.00000   0.00000   0.00000
           Z            0.00000   1.00000   0.00000
 This molecule is an asymmetric top.
 Rotational symmetry number  2.
 Rotational temperatures (Kelvin)     38.77814    20.82516    13.54893
 Rotational constants (GHZ):         808.00623   433.92637   282.31420
 Zero-point vibrational energy      55872.9 (Joules/Mol)
                                   13.35393 (Kcal/Mol)
 Vibrational temperatures:   2264.40  5529.01  5646.49
          (Kelvin)

 Zero-point correction=                           0.021281 (Hartree/Particle)
 Thermal correction to Energy=                    0.024117
 Thermal correction to Enthalpy=                  0.025061
 Thermal correction to Gibbs Free Energy=         0.003633
 Sum of electronic and zero-point Energies=            -76.413481
 Sum of electronic and thermal Energies=               -76.410645
 Sum of electronic and thermal Enthalpies=             -76.409701
 Sum of electronic and thermal Free Energies=          -76.431129

                     E (Thermal)             CV                S
                      KCal/Mol        Cal/Mol-Kelvin    Cal/Mol-Kelvin
 Total                   15.134              6.019             45.100
 Electronic               0.000              0.000              0.000
 Translational            0.889              2.981             34.608
 Rotational               0.889              2.981             10.483
 Vibrational             13.356              0.058              0.009

 Optimization completed.
    -- Stationary point found.
 Normal termination of Gaussian 09 at Tue Nov 26 18:20:55 2019.
